Program Version,EnergyPlus, Version 9.6.0-f420c06a69, YMD=2022.02.14 15:13
1,5,Environment Title[],Latitude[deg],Longitude[deg],Time Zone[],Elevation[m]
2,8,Day of Simulation[],Month[],Day of Month[],DST Indicator[1=yes 0=no],Hour[],StartMinute[],EndMinute[],DayType
3,5,Cumulative Day of Simulation[],Month[],Day of Month[],DST Indicator[1=yes 0=no],DayType  ! When Daily Report Variables Requested
4,2,Cumulative Days of Simulation[],Month[]  ! When Monthly Report Variables Requested
5,1,Cumulative Days of Simulation[] ! When Run Period Report Variables Requested
6,1,Calendar Year of Simulation[] ! When Annual Report Variables Requested
7,1,Environment,Site Outdoor Air Drybulb Temperature [C] !Hourly
8,1,Environment,Site Total Sky Cover [] !Hourly
9,1,Environment,Site Opaque Sky Cover [] !Hourly
10,7,Environment,Site Daylight Saving Time Status [] !Daily [Value,Min,Hour,Minute,Max,Hour,Minute]
11,7,Environment,Site Day Type Index [] !Daily [Value,Min,Hour,Minute,Max,Hour,Minute]
49,1,ZONE ONE,Zone Total Internal Latent Gain Energy [J] !Hourly
50,9,TEST 352A,Other Equipment Total Heating Energy [J] !Monthly [Value,Min,Day,Hour,Minute,Max,Day,Hour,Minute]
51,9,TEST 352 MINUS,Other Equipment Total Heating Energy [J] !Monthly [Value,Min,Day,Hour,Minute,Max,Day,Hour,Minute]
52,9,ZONE ONE,Zone Other Equipment Total Heating Energy [J] !Monthly [Value,Min,Day,Hour,Minute,Max,Day,Hour,Minute]
53,1,ZONE ONE,Zone Mean Radiant Temperature [C] !Hourly
54,7,ZN001:WALL001,Surface Inside Face Temperature [C] !Daily [Value,Min,Hour,Minute,Max,Hour,Minute]
55,7,ZN001:WALL001,Surface Outside Face Temperature [C] !Daily [Value,Min,Hour,Minute,Max,Hour,Minute]
56,7,ZN001:WALL001,Surface Inside Face Convection Heat Transfer Coefficient [W/m2-K] !Daily [Value,Min,Hour,Minute,Max,Hour,Minute]
57,7,ZN001:WALL001,Surface Outside Face Convection Heat Transfer Coefficient [W/m2-K] !Daily [Value,Min,Hour,Minute,Max,Hour,Minute]
58,7,ZN001:WALL002,Surface Inside Face Temperature [C] !Daily [Value,Min,Hour,Minute,Max,Hour,Minute]
59,7,ZN001:WALL002,Surface Outside Face Temperature [C] !Daily [Value,Min,Hour,Minute,Max,Hour,Minute]
60,7,ZN001:WALL002,Surface Inside Face Convection Heat Transfer Coefficient [W/m2-K] !Daily [Value,Min,Hour,Minute,Max,Hour,Minute]
61,7,ZN001:WALL002,Surface Outside Face Convection Heat Transfer Coefficient [W/m2-K] !Daily [Value,Min,Hour,Minute,Max,Hour,Minute]
62,7,ZN001:WALL003,Surface Inside Face Temperature [C] !Daily [Value,Min,Hour,Minute,Max,Hour,Minute]
63,7,ZN001:WALL003,Surface Outside Face Temperature [C] !Daily [Value,Min,Hour,Minute,Max,Hour,Minute]
64,7,ZN001:WALL003,Surface Inside Face Convection Heat Transfer Coefficient [W/m2-K] !Daily [Value,Min,Hour,Minute,Max,Hour,Minute]
65,7,ZN001:WALL003,Surface Outside Face Convection Heat Transfer Coefficient [W/m2-K] !Daily [Value,Min,Hour,Minute,Max,Hour,Minute]
66,7,ZN001:WALL004,Surface Inside Face Temperature [C] !Daily [Value,Min,Hour,Minute,Max,Hour,Minute]
67,7,ZN001:WALL004,Surface Outside Face Temperature [C] !Daily [Value,Min,Hour,Minute,Max,Hour,Minute]
68,7,ZN001:WALL004,Surface Inside Face Convection Heat Transfer Coefficient [W/m2-K] !Daily [Value,Min,Hour,Minute,Max,Hour,Minute]
69,7,ZN001:WALL004,Surface Outside Face Convection Heat Transfer Coefficient [W/m2-K] !Daily [Value,Min,Hour,Minute,Max,Hour,Minute]
70,7,ZN001:FLR001,Surface Inside Face Temperature [C] !Daily [Value,Min,Hour,Minute,Max,Hour,Minute]
71,7,ZN001:FLR001,Surface Outside Face Temperature [C] !Daily [Value,Min,Hour,Minute,Max,Hour,Minute]
72,7,ZN001:FLR001,Surface Inside Face Convection Heat Transfer Coefficient [W/m2-K] !Daily [Value,Min,Hour,Minute,Max,Hour,Minute]
73,7,ZN001:ROOF001,Surface Inside Face Temperature [C] !Daily [Value,Min,Hour,Minute,Max,Hour,Minute]
74,7,ZN001:ROOF001,Surface Outside Face Temperature [C] !Daily [Value,Min,Hour,Minute,Max,Hour,Minute]
75,7,ZN001:ROOF001,Surface Inside Face Convection Heat Transfer Coefficient [W/m2-K] !Daily [Value,Min,Hour,Minute,Max,Hour,Minute]
76,7,ZN001:ROOF001,Surface Outside Face Convection Heat Transfer Coefficient [W/m2-K] !Daily [Value,Min,Hour,Minute,Max,Hour,Minute]
77,1,ZONE ONE,Zone Mean Air Temperature [C] !Hourly
78,1,ZONE ONE,Zone Air Heat Balance Surface Convection Rate [W] !Hourly
79,1,ZONE ONE,Zone Air Heat Balance Air Energy Storage Rate [W] !Hourly
End of Data Dictionary
1,DENVER CENTENNIAL  GOLDEN   N ANN HTG 99% CONDNS DB,  37.62,-122.40,  -8.00,   2.00
2,1,12,21, 0, 1, 0.00,60.00,WinterDesignDay
7,-15.5
8,1.25
9,1.25
49,0.0
53,-18.208257429442167
77,-18.210957916180156
78,-0.035919116169558674
79,-0.03599015482956486
2,1,12,21, 0, 2, 0.00,60.00,WinterDesignDay
7,-15.5
8,3.25
9,3.25
49,0.0
53,-18.208346242455278
77,-18.211044743036272
78,-0.035356039748359436
79,-0.03542596637573524
2,1,12,21, 0, 3, 0.00,60.00,WinterDesignDay
7,-15.5
8,3.375
9,3.375
49,0.0
53,-18.208433661882808
77,-18.211130208729628
78,-0.03480177731580003
79,-0.034870609273411936
2,1,12,21, 0, 4, 0.00,60.00,WinterDesignDay
7,-15.5
8,1.125
9,1.125
49,0.0
53,-18.208519709584017
77,-18.21121433456837
78,-0.03425619137291136
79,-0.034323945731721824
2,1,12,21, 0, 5, 0.00,60.00,WinterDesignDay
7,-15.5
8,1.875
9,1.875
49,0.0
53,-18.208604407075555
77,-18.211297141528142
78,-0.03371914654842012
79,-0.03378584012708481
2,1,12,21, 0, 6, 0.00,60.00,WinterDesignDay
7,-15.5
8,3.0
9,3.0
49,0.0
53,-18.20868777553683
77,-18.211378650257316
78,-0.03319050955396152
79,-0.03325615891770778
2,1,12,21, 0, 7, 0.00,60.00,WinterDesignDay
7,-15.5
8,3.0
9,3.0
49,0.0
53,-18.208769835815293
77,-18.211458881081974
78,-0.03267014918400113
79,-0.03273477062570852
2,1,12,21, 0, 8, 0.00,60.00,WinterDesignDay
7,-15.5
8,3.0
9,3.0
49,0.0
53,-18.208850608431604
77,-18.21153785401094
78,-0.03215793625378138
79,-0.032221545817560954
2,1,12,21, 0, 9, 0.00,60.00,WinterDesignDay
7,-15.5
8,3.0
9,3.0
49,0.0
53,-18.208930113584785
77,-18.21161558874072
78,-0.03165374357844142
79,-0.031716357058552754
2,1,12,21, 0,10, 0.00,60.00,WinterDesignDay
7,-15.5
8,2.375
9,2.375
49,0.0
53,-18.2090083711572
77,-18.211692104660283
78,-0.03115744594654357
79,-0.03121907890657123
2,1,12,21, 0,11, 0.00,60.00,WinterDesignDay
7,-15.5
8,0.75
9,0.75
49,0.0
53,-18.209085400719573
77,-18.21176742085587
78,-0.030668920085150653
79,-0.030729587825272995
2,1,12,21, 0,12, 0.00,60.00,WinterDesignDay
7,-15.5
8,0.0
9,0.0
49,0.0
53,-18.209161221535833
77,-18.211841556115683
78,-0.03018804463824365
79,-0.030247762244059655
2,1,12,21, 0,13, 0.00,60.00,WinterDesignDay
7,-15.5
8,0.0
9,0.0
49,0.0
53,-18.209235852567897
77,-18.211914528934493
78,-0.029714700125573756
79,-0.02977348243106509
2,1,12,21, 0,14, 0.00,60.00,WinterDesignDay
7,-15.5
8,0.0
9,0.0
49,0.0
53,-18.209309312480443
77,-18.211986357518207
78,-0.029248768925587587
79,-0.029306630545016185
2,1,12,21, 0,15, 0.00,60.00,WinterDesignDay
7,-15.5
8,0.0
9,0.0
49,0.0
53,-18.2093816196455
77,-18.212057059788314
78,-0.028790135236421488
79,-0.028847090550693774
2,1,12,21, 0,16, 0.00,60.00,WinterDesignDay
7,-15.5
8,0.0
9,0.0
49,0.0
53,-18.20945279214711
77,-18.21212665338637
78,-0.028338685056557456
79,-0.028394748229511727
2,1,12,21, 0,17, 0.00,60.00,WinterDesignDay
7,-15.5
8,0.0
9,0.0
49,0.0
53,-18.20952284778577
77,-18.212195155678288
78,-0.027894306156192705
79,-0.027949491128246136
2,1,12,21, 0,18, 0.00,60.00,WinterDesignDay
7,-15.5
8,0.0
9,0.0
49,0.0
53,-18.209591804082883
77,-18.212262583758605
78,-0.027456888050182204
79,-0.027511208538075708
2,1,12,21, 0,19, 0.00,60.00,WinterDesignDay
7,-15.5
8,0.0
9,0.0
49,0.0
53,-18.20965967828515
77,-18.21232895445476
78,-0.027026321961959976
79,-0.027079791481503454
2,1,12,21, 0,20, 0.00,60.00,WinterDesignDay
7,-15.5
8,0.0
9,0.0
49,0.0
53,-18.209726487368858
77,-18.212394284331204
78,-0.02660250081016624
79,-0.026655132659511416
2,1,12,21, 0,21, 0.00,60.00,WinterDesignDay
7,-15.5
8,0.0
9,0.0
49,0.0
53,-18.20979224804413
77,-18.21245858969349
78,-0.026185319178504862
79,-0.02623712645358301
2,1,12,21, 0,22, 0.00,60.00,WinterDesignDay
7,-15.5
8,0.0
9,0.0
49,0.0
53,-18.20985697675905
77,-18.212521886592306
78,-0.025774673281988125
79,-0.025825668879553402
2,1,12,21, 0,23, 0.00,60.00,WinterDesignDay
7,-15.5
8,0.0
9,0.0
49,0.0
53,-18.209920689703807
77,-18.21258419082742
78,-0.025370460958933805
79,-0.02542065756085856
2,1,12,21, 0,24, 0.00,60.00,WinterDesignDay
7,-15.5
8,0.0
9,0.0
49,0.0
53,-18.20998340281473
77,-18.212645517951596
78,-0.024972581634352675
79,-0.025021991735362487
3,1,12,21, 0,WinterDesignDay
54,-18.14473130427405,-18.145500357130768,24,60,-18.1438609435393, 1,15
55,-17.463535433158047,-17.46356549975186,24,60,-17.46350140596684, 1,15
56,0.5322517387078015,0.5321055155361074, 1,15,0.5323810739341006,24,60
57,7.1514454070139015,7.151444430222757,24,60,7.15144651249999, 1,15
58,-18.14473130427405,-18.145500357130768,24,60,-18.1438609435393, 1,15
59,-17.463535433158047,-17.46356549975186,24,60,-17.46350140596684, 1,15
60,0.5322517387078015,0.5321055155361074, 1,15,0.5323810739341006,24,60
61,7.1514454070139015,7.151444430222757,24,60,7.15144651249999, 1,15
62,-18.14050689438095,-18.14127601253427,24,60,-18.13963645991457, 1,15
63,-17.41730710112594,-17.417336489540705,24,60,-17.417273841447592, 1,15
64,0.5431919628879791,0.543051759970231, 1,15,0.5433159755740259,24,60
65,7.416426631442921,7.416425486176388,24,60,7.4164279275980345, 1,15
66,-18.14050689438095,-18.14127601253427,24,60,-18.13963645991457, 1,15
67,-17.41730710112594,-17.417336489540705,24,60,-17.417273841447592, 1,15
68,0.5431919628879791,0.543051759970231, 1,15,0.5433159755740259,24,60
69,7.416426631442921,7.416425486176388,24,60,7.4164279275980345, 1,15
70,-18.215757263524655,-18.216692535983825,24,60,-18.214698744332107, 1,15
71,-18.21573623209002,-18.216675210823226,24,60,-18.214673518259225, 1,15
72,0.11964483126388518,0.11826885178415401, 1,15,0.12084246436096019,24,60
73,-18.282444949136522,-18.283263094652582,24,60,-18.28151902603988, 1,15
74,-20.30577561993957,-20.305787834583512,24,60,-20.30576179619572, 1,15
75,0.6282194816030436,0.6282180696599101, 1,15,0.6282205244059218,24,60
76,8.618881237630541,8.618880916994161,24,60,8.61888160050669, 1,15
10,0.0,0, 1,15,0, 1,15
11,10.,10, 1,15,10, 1,15
4,1,12
50,30412800.0,316800.0,21, 1,15,316800.0,21, 1,15
51,-30412800.0,-316800.0,21, 1,15,-316800.0,21, 1,15
52,0.0,0.0,21, 1,15,0.0,21, 1,15
1,DENVER CENTENNIAL  GOLDEN   N ANN CLG 1% CONDNS DB=>MWB,  37.62,-122.40,  -8.00,   2.00
2,1, 7,21, 0, 1, 0.00,60.00,SummerDesignDay
7,18.966
8,1.25
9,1.25
49,0.0
53,28.705693337705
77,28.86188474357067
78,-98.57006323553759
79,-98.48081210957601
2,1, 7,21, 0, 2, 0.00,60.00,SummerDesignDay
7,18.244
8,3.25
9,3.25
49,0.0
53,28.42423858121798
77,28.57998637444778
78,-96.30569888897605
79,-96.81901666419344
2,1, 7,21, 0, 3, 0.00,60.00,SummerDesignDay
7,17.731
8,3.375
9,3.375
49,0.0
53,28.150789399284466
77,28.305871705638516
78,-94.16366791763147
79,-94.42304226077772
2,1, 7,21, 0, 4, 0.00,60.00,SummerDesignDay
7,17.275000000000002
8,1.125
9,1.125
49,0.0
53,27.87859182951218
77,28.03489321434587
78,-94.51349321873703
79,-94.40166964599983
2,1, 7,21, 0, 5, 0.00,60.00,SummerDesignDay
7,16.913999999999998
8,1.875
9,1.875
49,0.0
53,27.609628052522993
77,27.76485086836535
78,-92.86651775142155
79,-93.2398436408398
2,1, 7,21, 0, 6, 0.00,60.00,SummerDesignDay
7,16.990000000000002
8,3.0
9,3.0
49,0.0
53,27.546507031179353
77,27.582095282641
78,5.966266539142765
79,-19.26640494622465
2,1, 7,21, 0, 7, 0.00,60.00,SummerDesignDay
7,17.769
8,3.0
9,3.0
49,0.0
53,27.96347959996211
77,27.83142702483948
78,127.3324758190621
79,125.65324504134675
2,1, 7,21, 0, 8, 0.00,60.00,SummerDesignDay
7,19.783
8,3.0
9,3.0
49,0.0
53,28.362296180690766
77,28.205993810882067
78,137.8085311942936
79,134.07704892803127
2,1, 7,21, 0, 9, 0.00,60.00,SummerDesignDay
7,22.557
8,3.0
9,3.0
49,0.0
53,28.814043313819308
77,28.64489028822714
78,167.16440280796434
79,163.78026320857046
2,1, 7,21, 0,10, 0.00,60.00,SummerDesignDay
7,25.255000000000003
8,2.375
9,2.375
49,0.0
53,29.317687025312022
77,29.139894123199564
78,169.36678123180155
79,171.01760655630324
2,1, 7,21, 0,11, 0.00,60.00,SummerDesignDay
7,27.649
8,0.75
9,0.75
49,0.0
53,29.760414610266267
77,29.602833105811342
78,149.1922700685809
79,152.25251363837668
2,1, 7,21, 0,12, 0.00,60.00,SummerDesignDay
7,29.454
8,0.0
9,0.0
49,0.0
53,30.105481911820085
77,29.984373864525036
78,112.49598432220286
79,117.65941537534805
2,1, 7,21, 0,13, 0.00,60.00,SummerDesignDay
7,30.784
8,0.0
9,0.0
49,0.0
53,30.43271641575472
77,30.29563688348432
78,120.77346215405055
79,114.04990812592314
2,1, 7,21, 0,14, 0.00,60.00,SummerDesignDay
7,31.715
8,0.0
9,0.0
49,0.0
53,30.840529855887834
77,30.700221768691847
78,144.76461164881107
79,146.15260501767503
2,1, 7,21, 0,15, 0.00,60.00,SummerDesignDay
7,32.0
8,0.0
9,0.0
49,0.0
53,31.152986260773936
77,31.07750608250853
78,109.59144155334943
79,115.49915285493658
2,1, 7,21, 0,16, 0.00,60.00,SummerDesignDay
7,31.43
8,0.0
9,0.0
49,0.0
53,31.30064224776203
77,31.31844510239512
78,53.339173952302005
79,61.20645590579426
2,1, 7,21, 0,17, 0.00,60.00,SummerDesignDay
7,30.328
8,0.0
9,0.0
49,0.0
53,31.291893213085608
77,31.40127073994911
78,10.175744879275488
79,13.607936419164643
2,1, 7,21, 0,18, 0.00,60.00,SummerDesignDay
7,28.922
8,0.0
9,0.0
49,0.0
53,31.166288086589034
77,31.36416124141462
78,-49.0016997280881
79,-37.17879845085592
2,1, 7,21, 0,19, 0.00,60.00,SummerDesignDay
7,26.927
8,0.0
9,0.0
49,0.0
53,30.692233928568033
77,31.019175652868526
78,-203.51122492933345
79,-179.88342251437078
2,1, 7,21, 0,20, 0.00,60.00,SummerDesignDay
7,25.027
8,0.0
9,0.0
49,0.0
53,30.117318147372632
77,30.345210981818035
78,-196.07238579043369
79,-217.40991401148023
2,1, 7,21, 0,21, 0.00,60.00,SummerDesignDay
7,23.544999999999998
8,0.0
9,0.0
49,0.0
53,29.815406777545267
77,29.95902954868773
78,-98.54016186508247
79,-101.53963690093107
2,1, 7,21, 0,22, 0.00,60.00,SummerDesignDay
7,22.177
8,0.0
9,0.0
49,0.0
53,29.545196434706998
77,29.68889954924961
78,-93.25112623381412
79,-92.79764114828289
2,1, 7,21, 0,23, 0.00,60.00,SummerDesignDay
7,20.999000000000002
8,0.0
9,0.0
49,0.0
53,29.272405951131386
77,29.418792679988442
78,-93.2016684737151
79,-93.38775496856356
2,1, 7,21, 0,24, 0.00,60.00,SummerDesignDay
7,19.935000000000002
8,0.0
9,0.0
49,0.0
53,28.993508807873674
77,29.145749977596658
78,-96.52638536843946
79,-95.9487758204358
3,1, 7,21, 0,SummerDesignDay
54,29.36605130881541,26.847870828985954, 6,15,31.788259560150134,15,45
55,27.569439113124258,15.339867950820299, 5,60,47.540298736894506,13,45
56,1.0660537198229174,0.36035180609874357,17,45,1.3185651082961427,13,60
57,9.784087351742171,9.648625187405333,16,30,10.138860086621163, 7,15
58,29.51238499301901,26.857005733189816, 6,15,31.4403778058999,16,30
59,30.175879246215587,15.50346965868586, 5,60,53.476652622609656, 9,45
60,1.0825673367859954,0.172365445168682,17,30,1.4832715734501618, 9,45
61,11.644335408223538,11.426209347133463,12,15,11.987031759839125,19,60
62,29.263305856790623,26.85693032328752, 6,15,31.463858549031507,17,60
63,25.629618712057418,15.50346965868586, 5,60,35.68660278041338,14,60
64,0.8758074808942377,0.1331170092336625,19,15,1.1934256827592291, 6,15
65,11.653618734940208,11.475130723737388,19,15,12.083737215405055, 6,45
66,29.497336520041717,26.856862169389622, 6,15,32.874979048235986,17,15
67,30.032847301966964,15.503469658685864, 5,60,61.19631328205829,17,15
68,1.0837856168608833,0.34614003978420543,19,60,1.5003827019803537,17,15
69,11.650564513581722,11.42623236353077,19,45,12.057767270775868, 7,15
70,29.464371526430188,28.199314129452745, 7,60,30.723611619422563,19,15
71,29.46435249957408,28.199314129452745, 8,15,30.723611619422563,19,30
72,0.9682653855285858,0.19441352957692679, 8,60,1.393769743834552, 6,15
73,29.54523513668229,27.251379276498408, 6,15,31.675955644396108,16,15
74,32.360623419105956,12.868293618488545, 5,60,61.858489976610706,13,45
75,0.8112058719930055,0.18411257888734264, 7,45,1.1770759194140954,20,15
76,13.389028050642276,13.08708698835993,17,45,14.020231957498218,19,45
10,0.0,0, 1,15,0, 1,15
11,9.,9, 1,15,9, 1,15
4,1, 7
50,30412800.0,316800.0,21, 1,15,316800.0,21, 1,15
51,-30412800.0,-316800.0,21, 1,15,-316800.0,21, 1,15
52,0.0,0.0,21, 1,15,0.0,21, 1,15
1,RUN PERIOD 1,  37.62,-122.40,  -8.00,   2.00
2,1, 1, 1, 0, 1, 0.00,60.00,Tuesday
7,7.0125
8,1.25
9,1.25
49,0.0
53,12.0813600271991
77,12.218501038873509
78,-82.68578118890613
79,-79.7323040875146
2,1, 1, 1, 0, 2, 0.00,60.00,Tuesday
7,7.2
8,3.25
9,3.25
49,0.0
53,11.972580792489632
77,12.050980253942956
78,-28.125142561958064
79,-38.6939789188597
2,1, 1, 1, 0, 3, 0.00,60.00,Tuesday
7,6.8875
8,3.375
9,3.375
49,0.0
53,11.861059134797719
77,11.965325795278446
78,-50.74408512811174
79,-43.53660375453508
2,1, 1, 1, 0, 4, 0.00,60.00,Tuesday
7,6.324999999999999
8,1.125
9,1.125
49,0.0
53,11.636671155187631
77,11.777728865071836
78,-87.81354825043405
79,-83.39599320796242
2,1, 1, 1, 0, 5, 0.00,60.00,Tuesday
7,5.0375
8,1.875
9,1.875
49,0.0
53,11.41688420933646
77,11.546435886334457
78,-76.50140840575743
79,-79.97120114822658
2,1, 1, 1, 0, 6, 0.00,60.00,Tuesday
7,4.4
8,3.0
9,3.0
49,0.0
53,11.214654980329044
77,11.345239192560056
78,-74.84972552195913
79,-74.55842779754849
2,1, 1, 1, 0, 7, 0.00,60.00,Tuesday
7,5.4624999999999995
8,3.0
9,3.0
49,0.0
53,11.029924033796249
77,11.153780447171204
78,-67.26572082253541
79,-68.39340398511024
2,1, 1, 1, 0, 8, 0.00,60.00,Tuesday
7,5.4125
8,3.0
9,3.0
49,0.0
53,11.186940108915529
77,11.086588271433335
78,96.14244331099542
79,49.529864189475944
2,1, 1, 1, 0, 9, 0.00,60.00,Tuesday
7,6.750000000000001
8,3.0
9,3.0
49,0.0
53,12.292650013334189
77,11.771415872004527
78,491.2255775323416
79,410.1592185765578
2,1, 1, 1, 0,10, 0.00,60.00,Tuesday
7,8.487499999999999
8,2.375
9,2.375
49,0.0
53,13.148701256491947
77,12.63326579023933
78,605.4025662986602
79,502.4971317312644
2,1, 1, 1, 0,11, 0.00,60.00,Tuesday
7,9.2125
8,0.75
9,0.75
49,0.0
53,13.626271744813723
77,13.549749609684195
78,245.90996633693726
79,293.5058285197393
2,1, 1, 1, 0,12, 0.00,60.00,Tuesday
7,9.775
8,0.0
9,0.0
49,0.0
53,13.823653600077186
77,13.889823006564207
78,63.65994132876951
79,66.49275613548694
2,1, 1, 1, 0,13, 0.00,60.00,Tuesday
7,10.375
8,0.0
9,0.0
49,0.0
53,14.059942518325428
77,14.069864757046087
78,92.63365007737598
79,82.28996001642112
2,1, 1, 1, 0,14, 0.00,60.00,Tuesday
7,10.9125
8,0.0
9,0.0
49,0.0
53,14.601500245413398
77,14.497076436179588
78,217.77308567446028
79,203.92486454260415
2,1, 1, 1, 0,15, 0.00,60.00,Tuesday
7,12.85
8,0.0
9,0.0
49,0.0
53,15.09902952687068
77,15.10677137559056
78,180.58340987162913
79,201.02641686155454
2,1, 1, 1, 0,16, 0.00,60.00,Tuesday
7,13.9
8,0.0
9,0.0
49,0.0
53,14.768135669951953
77,15.169373361193554
78,-178.1692349227461
79,-121.39392794258941
2,1, 1, 1, 0,17, 0.00,60.00,Tuesday
7,12.15
8,0.0
9,0.0
49,0.0
53,13.795835095761378
77,14.288196438336701
78,-366.1639648983054
79,-378.65512967627933
2,1, 1, 1, 0,18, 0.00,60.00,Tuesday
7,11.1
8,0.0
9,0.0
49,0.0
53,13.384179239768308
77,13.575099573794047
78,-155.8661146980211
79,-178.1473872829881
2,1, 1, 1, 0,19, 0.00,60.00,Tuesday
7,10.7875
8,0.0
9,0.0
49,0.0
53,13.165925099816809
77,13.284329868698341
78,-77.48184845855786
79,-81.81390942465679
2,1, 1, 1, 0,20, 0.00,60.00,Tuesday
7,10.6
8,0.0
9,0.0
49,0.0
53,13.046207121872321
77,13.12695415050419
78,-39.85089517258442
79,-44.39732151429878
2,1, 1, 1, 0,21, 0.00,60.00,Tuesday
7,9.5375
8,0.0
9,0.0
49,0.0
53,12.874241744805683
77,12.993555882100477
78,-70.51525331073705
79,-63.217905145696776
2,1, 1, 1, 0,22, 0.00,60.00,Tuesday
7,9.2125
8,0.0
9,0.0
49,0.0
53,12.716870303561768
77,12.811739017917604
78,-50.7192150272766
79,-57.15571427838245
2,1, 1, 1, 0,23, 0.00,60.00,Tuesday
7,8.4
8,0.0
9,0.0
49,0.0
53,12.515135504942512
77,12.649968252358239
78,-82.80140130648664
79,-74.57719074783124
2,1, 1, 1, 0,24, 0.00,60.00,Tuesday
7,7.1125
8,0.0
9,0.0
49,0.0
53,12.295828736819818
77,12.421149716566177
78,-75.30750401006588
79,-79.61105548064053
3,1, 1, 1, 0,Tuesday
54,13.242476187157706,10.460491341749108, 8,15,17.39367169244392,15,30
55,20.341273634116366,2.8943728850214647, 6,60,56.373789834403105,15,30
56,1.2297584185764425,0.7797685842487538,17,30,1.802737806496126,11,15
57,5.00331676431848,1.63801110500421, 8,45,7.7069580671903015, 5,60
58,12.834950645542603,10.46018808420102, 8,15,15.276015649988029,15,60
59,13.320892770206575,2.89397672400617, 6,60,44.93050537910093,10,30
60,1.046085117764621,0.15851410337115596,16,15,1.7091455718064426,10,15
61,4.72532590188337,1.7006143983703768, 8,15,7.499114478548161,17,30
62,12.575847075786507,10.460189405704783, 8,15,15.276015649992372,15,60
63,9.038050039507686,2.9450327251340394, 6,60,18.65055779753233,15,45
64,0.9072038853778497,0.15851410324161827,16,15,1.1507979717130017,17,45
65,4.414842528438251,0.8537015628121456, 9,30,7.863275002876076,17,30
66,12.749155813038515,10.460468704452046, 8,15,16.943271510427675,15,60
67,11.89357574269386,2.8943728850214643, 6,60,46.198507804301215,15,60
68,0.9916866736791814,0.23122526387524747,11,60,1.5853701401667453,15,45
69,4.581139122006259,0.853701516227945, 9,30,7.821314039067222,16,60
70,12.810839092432362,11.627618945914977, 8,60,13.889526130039295,17,15
71,12.81085557532692,11.627618945914977, 9,15,13.889526130039295,17,30
72,1.027541707185888,0.18420518767982932, 9,45,1.3021438771418559, 8,30
73,12.783656239733832,10.655129465775934, 8,15,15.43974047328151,15,30
74,10.694053112387623,-2.944069836995301, 8,30,34.860752681891746,14,45
75,0.8791997699721898,0.23273717692076978, 9,15,1.300177841800869,17,45
76,5.21479925039463,1.158067756274657, 9,15,8.987283060516301,17,30
10,0.0,0, 1,15,0, 1,15
11,3.,3, 1,15,3, 1,15
2,2, 1, 2, 0, 1, 0.00,60.00,Wednesday
7,8.075000000000001
8,0.0
9,0.0
49,0.0
53,12.211132119088237
77,12.281049115226725
78,-22.81513770322917
79,-31.000821573124878
2,2, 1, 2, 0, 2, 0.00,60.00,Wednesday
7,7.15
8,1.25
9,0.625
49,0.0
53,11.939809511066137
77,12.123578507306185
78,-126.0423861760208
79,-103.74561968397451
2,2, 1, 2, 0, 3, 0.00,60.00,Wednesday
7,5.7875
8,1.375
9,1.0
49,0.0
53,11.60817414003198
77,11.766953108128423
78,-106.33864328900356
79,-118.35179504136642
2,2, 1, 2, 0, 4, 0.00,60.00,Wednesday
7,4.5375
8,2.25
9,2.25
49,0.0
53,11.328332589471225
77,11.49523965284
78,-105.64966471211869
79,-102.47508823090294
2,2, 1, 2, 0, 5, 0.00,60.00,Wednesday
7,4.9624999999999995
8,1.125
9,1.125
49,0.0
53,11.180378625096115
77,11.280206971244683
78,-38.49707689762174
79,-51.525304515013175
2,2, 1, 2, 0, 6, 0.00,60.00,Wednesday
7,6.6
8,0.0
9,0.0
49,0.0
53,11.195626430030464
77,11.246857139367725
78,3.8236569423397064
79,1.567207696189981
2,2, 1, 2, 0, 7, 0.00,60.00,Wednesday
7,7.575
8,0.0
9,0.0
49,0.0
53,11.194897986805339
77,11.249454881921944
78,-8.033057671353241
79,-4.880589087776007
2,2, 1, 2, 0, 8, 0.00,60.00,Wednesday
7,7.425
8,0.0
9,0.0
49,0.0
53,11.27148294253917
77,11.245376361880695
78,32.79869569659197
79,18.721034872016215
2,2, 1, 2, 0, 9, 0.00,60.00,Wednesday
7,9.325000000000001
8,0.0
9,0.0
49,0.0
53,11.841354088124376
77,11.566459278226947
78,201.70511552445203
79,182.3688509844307
2,2, 1, 2, 0,10, 0.00,60.00,Wednesday
7,11.287499999999998
8,0.0
9,0.0
49,0.0
53,12.444188587219518
77,12.217399240796658
78,247.61651797322043
79,252.93818694019302
2,2, 1, 2, 0,11, 0.00,60.00,Wednesday
7,13.075
8,0.625
9,0.0
49,0.0
53,13.0137368309435
77,12.832841753566981
78,233.29896890261313
79,224.68678709301395
2,2, 1, 2, 0,12, 0.00,60.00,Wednesday
7,13.9
8,1.625
9,0.625
49,0.0
53,13.505915821606951
77,13.44052316509007
78,172.28157515068864
79,194.47708710230395
2,2, 1, 2, 0,13, 0.00,60.00,Wednesday
7,13.9
8,2.0
9,1.0
49,0.0
53,14.10661744059382
77,13.947918396447264
78,256.2479489290913
79,229.29055450832675
2,2, 1, 2, 0,14, 0.00,60.00,Wednesday
7,13.9
8,2.0
9,1.0
49,0.0
53,14.410258500565597
77,14.471409298922412
78,75.55632240398926
79,111.51298462203476
2,2, 1, 2, 0,15, 0.00,60.00,Wednesday
7,12.837499999999999
8,2.0
9,1.0
49,0.0
53,14.465218653879969
77,14.59781516321989
78,31.975233987583533
79,34.66865512236932
2,2, 1, 2, 0,16, 0.00,60.00,Wednesday
7,12.575
8,1.375
9,1.0
49,0.0
53,14.22610134670579
77,14.531503576570913
78,-120.33672542314487
79,-87.61582914165562
2,2, 1, 2, 0,17, 0.00,60.00,Wednesday
7,11.7375
8,1.0
9,0.375
49,0.0
53,13.418104388262943
77,13.849168738039504
78,-308.8013214295067
79,-313.0276848375616
2,2, 1, 2, 0,18, 0.00,60.00,Wednesday
7,10.7875
8,2.25
9,1.25
49,0.0
53,13.009437800875606
77,13.215902064892685
78,-165.52825622213368
79,-175.93168026162166
2,2, 1, 2, 0,19, 0.00,60.00,Wednesday
7,11.287499999999998
8,1.125
9,0.75
49,0.0
53,12.768516146504513
77,12.882420444220449
78,-76.57782564574421
79,-89.28626493888993
2,2, 1, 2, 0,20, 0.00,60.00,Wednesday
7,11.7
8,0.0
9,0.0
49,0.0
53,12.70520715986089
77,12.760205389991889
78,-18.06606104125146
79,-23.9521032132757
2,2, 1, 2, 0,21, 0.00,60.00,Wednesday
7,10.6375
8,0.0
9,0.0
49,0.0
53,12.586069177137318
77,12.686343502919454
78,-53.511668163151484
79,-44.10076635771135
2,2, 1, 2, 0,22, 0.00,60.00,Wednesday
7,9.3125
8,0.0
9,0.0
49,0.0
53,12.31554122823092
77,12.46821152595978
78,-104.26266962534856
79,-99.13301144597983
2,2, 1, 2, 0,23, 0.00,60.00,Wednesday
7,9.2125
8,0.0
9,0.0
49,0.0
53,12.108072003501333
77,12.220441573058139
78,-64.75682629365829
79,-73.51136960668654
2,2, 1, 2, 0,24, 0.00,60.00,Wednesday
7,9.0875
8,0.0
9,0.0
49,0.0
53,11.93986026259185
77,12.057412322894562
78,-64.85654543725563
79,-62.06570961296501
3,2, 1, 2, 0,Wednesday
54,12.842630465816592,10.667145223210605, 4,60,16.76686870119886,13,60
55,17.872178064470894,1.4659087511676903, 4,60,58.665717610481806,13,45
56,1.1651874184548177,0.43215663306780777, 8,60,1.8123638661458368,13,45
57,6.018128888166204,1.6160395532490872, 2,60,14.15237272127244, 9,60
58,12.477451602333671,10.667145223719986, 4,60,14.736396883722906,14,15
59,11.651837742287535,1.4659087552891286, 4,60,29.811189305944687,10,30
60,1.016583984607984,0.313640839558454,15,45,1.4032559104256401,10,45
61,5.765686468948314,1.6740964904017657, 4,60,14.133132321471937, 9,60
62,12.339421512596426,10.666388946164103, 5,15,14.736391531986278,14,15
63,9.434849275729762,1.4659087552891288, 4,60,21.223112998172766,13,60
64,0.9324240948602158,0.31364083964574146,15,45,1.174322672945551, 5,15
65,5.425659465379728,1.6740964904017657, 4,60,11.742690651305844, 9,60
66,12.485373729918676,10.666388946222758, 5,15,15.806149590089237,15,30
67,11.778489174727492,1.4659087511676896, 4,60,36.80497992808373,15,60
68,1.0036689714684615,0.4548139268253664, 9,45,1.3978342039617229,15,45
69,5.574971494841247,1.6160395604733537, 2,60,11.742690651305844, 9,60
70,12.588665435756212,11.60456518412456, 8,60,13.52336465461971,16,60
71,12.592499885727335,11.60456518412456, 9,15,13.52336465461971,17,15
72,1.019355621855734,0.2964245930204896,18,15,1.3905898474871927, 5,30
73,12.473742541808653,10.926425424603385, 5,30,14.841956594112354,13,60
74,9.12968161759599,-4.785160832343683, 4,60,39.31490288608894,13,45
75,0.8695733121251346,0.2842060097472977,15,60,1.2566987167759962,17,45
76,6.615855394275204,1.4582882621679918,18,60,16.770935734569047, 9,45
10,0.0,0, 1,15,0, 1,15
11,4.,4, 1,15,4, 1,15
2,3, 1, 3, 0, 1, 0.00,60.00,Thursday
7,9.2125
8,0.0
9,0.0
49,0.0
53,11.909536668060767
77,11.952041497136804
78,-0.6505175429970702
79,-12.102990565510762
2,3, 1, 3, 0, 2, 0.00,60.00,Thursday
7,9.775
8,0.0
9,0.0
49,0.0
53,11.958225331675628
77,11.98115523986609
78,10.606021265947124
79,12.437957068152315
2,3, 1, 3, 0, 3, 0.00,60.00,Thursday
7,11.375
8,0.0
9,0.0
49,0.0
53,11.960935059109435
77,11.995327619294239
78,-4.2028251122975835
79,-0.8544031588535264
2,3, 1, 3, 0, 4, 0.00,60.00,Thursday
7,13.2625
8,0.0
9,0.0
49,0.0
53,12.130040410589322
77,12.04103600195267
78,48.507677135287764
79,38.360684947803676
2,3, 1, 3, 0, 5, 0.00,60.00,Thursday
7,13.212500000000002
8,0.0
9,0.0
49,0.0
53,12.187848093425721
77,12.150667678818726
78,19.55973481083703
79,27.116099386752733
2,3, 1, 3, 0, 6, 0.00,60.00,Thursday
7,12.425
8,0.0
9,0.0
49,0.0
53,12.123897502920222
77,12.155227653395357
78,-12.217390231845169
79,-9.52831776663334
2,3, 1, 3, 0, 7, 0.00,60.00,Thursday
7,11.5125
8,0.0
9,0.0
49,0.0
53,12.028502158307319
77,12.092860286357778
78,-33.48053976788272
79,-30.915412112537187
2,3, 1, 3, 0, 8, 0.00,60.00,Thursday
7,11.1
8,0.0
9,0.0
49,0.0
53,12.060365009337055
77,12.03093851768645
78,13.210037626992108
79,-1.256695076310507
2,3, 1, 3, 0, 9, 0.00,60.00,Thursday
7,11.474999999999998
8,0.0
9,0.0
49,0.0
53,12.524904847995176
77,12.284795476334862
78,184.30270402554976
79,160.67382070542598
2,3, 1, 3, 0,10, 0.00,60.00,Thursday
7,12.7
8,0.0
9,0.0
49,0.0
53,13.231664277002825
77,12.970889479267367
78,297.9709069386412
79,291.806379273434
2,3, 1, 3, 0,11, 0.00,60.00,Thursday
7,12.6125
8,0.0
9,0.0
49,0.0
53,13.626546016372679
77,13.608356293910369
78,128.47687762740955
79,162.955301949061
2,3, 1, 3, 0,12, 0.00,60.00,Thursday
7,13.95
8,0.625
9,0.625
49,0.0
53,13.970938449377673
77,13.882107426881888
78,142.98407340312468
79,118.52867633589958
2,3, 1, 3, 0,13, 0.00,60.00,Thursday
7,15.375000000000002
8,2.25
9,1.625
49,0.0
53,14.50238490584288
77,14.38995155913205
78,202.04461272524748
79,204.78948764127938
2,3, 1, 3, 0,14, 0.00,60.00,Thursday
7,15.912500000000001
8,2.375
9,1.375
49,0.0
53,15.096737081178043
77,14.992457271716365
78,224.8732220734736
79,227.19648344336076
2,3, 1, 3, 0,15, 0.00,60.00,Thursday
7,16.1
8,1.375
9,1.0
49,0.0
53,15.182470235604697
77,15.336136333526492
78,5.715838188786613
79,37.31750408613667
2,3, 1, 3, 0,16, 0.00,60.00,Thursday
7,14.725
8,1.625
9,1.0
49,0.0
53,14.780786721004652
77,15.125250223497762
78,-170.19456764016522
79,-142.7753975009953
2,3, 1, 3, 0,17, 0.00,60.00,Thursday
7,13.9
8,2.0
9,1.625
49,0.0
53,13.959783448520886
77,14.383585615490578
78,-312.20362240208686
79,-318.7199559843267
2,3, 1, 3, 0,18, 0.00,60.00,Thursday
7,13.212500000000002
8,1.375
9,1.375
49,0.0
53,13.682552108302582
77,13.808656075051502
78,-99.78921251025898
79,-125.17680917994785
2,3, 1, 3, 0,19, 0.00,60.00,Thursday
7,12.425
8,1.0
9,1.0
49,0.0
53,13.540219726840789