Program Version,EnergyPlus, Version 9.4.0-998c4b761e, YMD=2020.11.13 06:25
1,5,Environment Title[],Latitude[deg],Longitude[deg],Time Zone[],Elevation[m]
2,8,Day of Simulation[],Month[],Day of Month[],DST Indicator[1=yes 0=no],Hour[],StartMinute[],EndMinute[],DayType
3,5,Cumulative Day of Simulation[],Month[],Day of Month[],DST Indicator[1=yes 0=no],DayType  ! When Daily Report Variables Requested
4,2,Cumulative Days of Simulation[],Month[]  ! When Monthly Report Variables Requested
5,1,Cumulative Days of Simulation[] ! When Run Period Report Variables Requested
6,1,Calendar Year of Simulation[] ! When Annual Report Variables Requested
7,1,Environment,Site Outdoor Air Drybulb Temperature [C] !Hourly
8,7,Environment,Site Daylight Saving Time Status [] !Daily [Value,Min,Hour,Minute,Max,Hour,Minute]
9,7,Environment,Site Day Type Index [] !Daily [Value,Min,Hour,Minute,Max,Hour,Minute]
47,1,ZONE ONE,Zone Total Internal Latent Gain Energy [J] !Hourly
48,9,TEST 352A,Other Equipment Total Heating Energy [J] !Monthly [Value,Min,Day,Hour,Minute,Max,Day,Hour,Minute]
49,9,ZONE ONE,Zone Other Equipment Total Heating Energy [J] !Monthly [Value,Min,Day,Hour,Minute,Max,Day,Hour,Minute]
50,9,TEST 352 MINUS,Other Equipment Total Heating Energy [J] !Monthly [Value,Min,Day,Hour,Minute,Max,Day,Hour,Minute]
51,7,ZN001:WALL001,Surface Inside Face Temperature [C] !Daily [Value,Min,Hour,Minute,Max,Hour,Minute]
52,7,ZN001:WALL001,Surface Outside Face Temperature [C] !Daily [Value,Min,Hour,Minute,Max,Hour,Minute]
53,7,ZN001:WALL001,Surface Inside Face Convection Heat Transfer Coefficient [W/m2-K] !Daily [Value,Min,Hour,Minute,Max,Hour,Minute]
54,7,ZN001:WALL001,Surface Outside Face Convection Heat Transfer Coefficient [W/m2-K] !Daily [Value,Min,Hour,Minute,Max,Hour,Minute]
55,7,ZN001:WALL002,Surface Inside Face Temperature [C] !Daily [Value,Min,Hour,Minute,Max,Hour,Minute]
56,7,ZN001:WALL002,Surface Outside Face Temperature [C] !Daily [Value,Min,Hour,Minute,Max,Hour,Minute]
57,7,ZN001:WALL002,Surface Inside Face Convection Heat Transfer Coefficient [W/m2-K] !Daily [Value,Min,Hour,Minute,Max,Hour,Minute]
58,7,ZN001:WALL002,Surface Outside Face Convection Heat Transfer Coefficient [W/m2-K] !Daily [Value,Min,Hour,Minute,Max,Hour,Minute]
59,7,ZN001:WALL003,Surface Inside Face Temperature [C] !Daily [Value,Min,Hour,Minute,Max,Hour,Minute]
60,7,ZN001:WALL003,Surface Outside Face Temperature [C] !Daily [Value,Min,Hour,Minute,Max,Hour,Minute]
61,7,ZN001:WALL003,Surface Inside Face Convection Heat Transfer Coefficient [W/m2-K] !Daily [Value,Min,Hour,Minute,Max,Hour,Minute]
62,7,ZN001:WALL003,Surface Outside Face Convection Heat Transfer Coefficient [W/m2-K] !Daily [Value,Min,Hour,Minute,Max,Hour,Minute]
63,7,ZN001:WALL004,Surface Inside Face Temperature [C] !Daily [Value,Min,Hour,Minute,Max,Hour,Minute]
64,7,ZN001:WALL004,Surface Outside Face Temperature [C] !Daily [Value,Min,Hour,Minute,Max,Hour,Minute]
65,7,ZN001:WALL004,Surface Inside Face Convection Heat Transfer Coefficient [W/m2-K] !Daily [Value,Min,Hour,Minute,Max,Hour,Minute]
66,7,ZN001:WALL004,Surface Outside Face Convection Heat Transfer Coefficient [W/m2-K] !Daily [Value,Min,Hour,Minute,Max,Hour,Minute]
67,7,ZN001:FLR001,Surface Inside Face Temperature [C] !Daily [Value,Min,Hour,Minute,Max,Hour,Minute]
68,7,ZN001:FLR001,Surface Outside Face Temperature [C] !Daily [Value,Min,Hour,Minute,Max,Hour,Minute]
69,7,ZN001:FLR001,Surface Inside Face Convection Heat Transfer Coefficient [W/m2-K] !Daily [Value,Min,Hour,Minute,Max,Hour,Minute]
70,7,ZN001:ROOF001,Surface Inside Face Temperature [C] !Daily [Value,Min,Hour,Minute,Max,Hour,Minute]
71,7,ZN001:ROOF001,Surface Outside Face Temperature [C] !Daily [Value,Min,Hour,Minute,Max,Hour,Minute]
72,7,ZN001:ROOF001,Surface Inside Face Convection Heat Transfer Coefficient [W/m2-K] !Daily [Value,Min,Hour,Minute,Max,Hour,Minute]
73,7,ZN001:ROOF001,Surface Outside Face Convection Heat Transfer Coefficient [W/m2-K] !Daily [Value,Min,Hour,Minute,Max,Hour,Minute]
74,1,ZONE ONE,Zone Mean Radiant Temperature [C] !Hourly
75,1,ZONE ONE,Zone Mean Air Temperature [C] !Hourly
76,1,ZONE ONE,Zone Air Heat Balance Surface Convection Rate [W] !Hourly
77,1,ZONE ONE,Zone Air Heat Balance Air Energy Storage Rate [W] !Hourly
End of Data Dictionary
1,DENVER CENTENNIAL  GOLDEN   N ANN HTG 99% CONDNS DB,  37.62,-122.40,  -8.00,   2.00
2,1,12,21, 0, 1, 0.00,60.00,WinterDesignDay
7,-15.5
47,0.0
74,-18.208257429442168
75,-18.210957916180158
76,-0.035919116169558677
77,-0.03599015482956486
2,1,12,21, 0, 2, 0.00,60.00,WinterDesignDay
7,-15.5
47,0.0
74,-18.208346242455279
75,-18.211044743036273
76,-0.035356039748359439
77,-0.03542596637573524
2,1,12,21, 0, 3, 0.00,60.00,WinterDesignDay
7,-15.5
47,0.0
74,-18.208433661882809
75,-18.211130208729629
76,-0.03480177731580003
77,-0.034870609273411939
2,1,12,21, 0, 4, 0.00,60.00,WinterDesignDay
7,-15.5
47,0.0
74,-18.208519709584018
75,-18.21121433456837
76,-0.03425619137291136
77,-0.034323945731721827
2,1,12,21, 0, 5, 0.00,60.00,WinterDesignDay
7,-15.5
47,0.0
74,-18.208604407075556
75,-18.211297141528143
76,-0.03371914654842012
77,-0.03378584012708481
2,1,12,21, 0, 6, 0.00,60.00,WinterDesignDay
7,-15.5
47,0.0
74,-18.20868777553683
75,-18.211378650257318
76,-0.03319050955396152
77,-0.03325615891770778
2,1,12,21, 0, 7, 0.00,60.00,WinterDesignDay
7,-15.5
47,0.0
74,-18.208769835815294
75,-18.211458881081975
76,-0.03267014918400113
77,-0.03273477062570852
2,1,12,21, 0, 8, 0.00,60.00,WinterDesignDay
7,-15.5
47,0.0
74,-18.208850608431605
75,-18.21153785401094
76,-0.03215793625378138
77,-0.032221545817560957
2,1,12,21, 0, 9, 0.00,60.00,WinterDesignDay
7,-15.5
47,0.0
74,-18.208930113584786
75,-18.21161558874072
76,-0.03165374357844142
77,-0.031716357058552756
2,1,12,21, 0,10, 0.00,60.00,WinterDesignDay
7,-15.5
47,0.0
74,-18.2090083711572
75,-18.211692104660285
76,-0.03115744594654357
77,-0.03121907890657123
2,1,12,21, 0,11, 0.00,60.00,WinterDesignDay
7,-15.5
47,0.0
74,-18.209085400719574
75,-18.21176742085587
76,-0.030668920085150654
77,-0.030729587825272996
2,1,12,21, 0,12, 0.00,60.00,WinterDesignDay
7,-15.5
47,0.0
74,-18.209161221535834
75,-18.211841556115684
76,-0.03018804463824365
77,-0.030247762244059657
2,1,12,21, 0,13, 0.00,60.00,WinterDesignDay
7,-15.5
47,0.0
74,-18.209235852567898
75,-18.211914528934494
76,-0.029714700125573758
77,-0.02977348243106509
2,1,12,21, 0,14, 0.00,60.00,WinterDesignDay
7,-15.5
47,0.0
74,-18.209309312480444
75,-18.211986357518208
76,-0.029248768925587588
77,-0.029306630545016186
2,1,12,21, 0,15, 0.00,60.00,WinterDesignDay
7,-15.5
47,0.0
74,-18.2093816196455
75,-18.212057059788316
76,-0.028790135236421489
77,-0.028847090550693775
2,1,12,21, 0,16, 0.00,60.00,WinterDesignDay
7,-15.5
47,0.0
74,-18.20945279214711
75,-18.21212665338637
76,-0.028338685056557457
77,-0.028394748229511728
2,1,12,21, 0,17, 0.00,60.00,WinterDesignDay
7,-15.5
47,0.0
74,-18.20952284778577
75,-18.212195155678289
76,-0.027894306156192706
77,-0.027949491128246137
2,1,12,21, 0,18, 0.00,60.00,WinterDesignDay
7,-15.5
47,0.0
74,-18.209591804082885
75,-18.212262583758606
76,-0.027456888050182206
77,-0.027511208538075709
2,1,12,21, 0,19, 0.00,60.00,WinterDesignDay
7,-15.5
47,0.0
74,-18.20965967828515
75,-18.21232895445476
76,-0.027026321961959977
77,-0.027079791481503455
2,1,12,21, 0,20, 0.00,60.00,WinterDesignDay
7,-15.5
47,0.0
74,-18.209726487368859
75,-18.212394284331205
76,-0.02660250081016624
77,-0.026655132659511417
2,1,12,21, 0,21, 0.00,60.00,WinterDesignDay
7,-15.5
47,0.0
74,-18.20979224804413
75,-18.21245858969349
76,-0.026185319178504863
77,-0.02623712645358301
2,1,12,21, 0,22, 0.00,60.00,WinterDesignDay
7,-15.5
47,0.0
74,-18.20985697675905
75,-18.212521886592307
76,-0.025774673281988126
77,-0.025825668879553403
2,1,12,21, 0,23, 0.00,60.00,WinterDesignDay
7,-15.5
47,0.0
74,-18.209920689703809
75,-18.21258419082742
76,-0.025370460958933806
77,-0.02542065756085856
2,1,12,21, 0,24, 0.00,60.00,WinterDesignDay
7,-15.5
47,0.0
74,-18.20998340281473
75,-18.212645517951598
76,-0.024972581634352676
77,-0.025021991735362488
3,1,12,21, 0,WinterDesignDay
51,-18.14473130427405,-18.145500357130769,24,60,-18.1438609435393, 1,15
52,-17.463535433158048,-17.46356549975186,24,60,-17.46350140596684, 1,15
53,0.5322517387078015,0.5321055155361074, 1,15,0.5323810739341006,24,60
54,7.1514454070139019,7.151444430222757,24,60,7.15144651249999, 1,15
55,-18.14473130427405,-18.145500357130769,24,60,-18.1438609435393, 1,15
56,-17.463535433158048,-17.46356549975186,24,60,-17.46350140596684, 1,15
57,0.5322517387078015,0.5321055155361074, 1,15,0.5323810739341006,24,60
58,7.1514454070139019,7.151444430222757,24,60,7.15144651249999, 1,15
59,-18.14050689438095,-18.14127601253427,24,60,-18.13963645991457, 1,15
60,-17.41730710112594,-17.417336489540707,24,60,-17.417273841447594, 1,15
61,0.5431919628879791,0.543051759970231, 1,15,0.5433159755740259,24,60
62,7.416426631442921,7.416425486176388,24,60,7.4164279275980349, 1,15
63,-18.14050689438095,-18.14127601253427,24,60,-18.13963645991457, 1,15
64,-17.41730710112594,-17.417336489540707,24,60,-17.417273841447594, 1,15
65,0.5431919628879791,0.543051759970231, 1,15,0.5433159755740259,24,60
66,7.416426631442921,7.416425486176388,24,60,7.4164279275980349, 1,15
67,-18.215757263524656,-18.216692535983826,24,60,-18.214698744332109, 1,15
68,-18.21573623209002,-18.216675210823227,24,60,-18.214673518259226, 1,15
69,0.11964483126388519,0.11826885178415402, 1,15,0.12084246436096019,24,60
70,-18.282444949136523,-18.283263094652584,24,60,-18.28151902603988, 1,15
71,-20.30577561993957,-20.305787834583513,24,60,-20.30576179619572, 1,15
72,0.6282194816030436,0.6282180696599101, 1,15,0.6282205244059218,24,60
73,8.618881237630541,8.618880916994162,24,60,8.61888160050669, 1,15
8,0.0,0, 1,15,0, 1,15
9,10.,10, 1,15,10, 1,15
4,1,12
48,30412800.0,316800.0,21, 1,15,316800.0,21, 1,15
49,0.0,0.0,21, 1,15,0.0,21, 1,15
50,-30412800.0,-316800.0,21, 1,15,-316800.0,21, 1,15
1,DENVER CENTENNIAL  GOLDEN   N ANN CLG 1% CONDNS DB=>MWB,  37.62,-122.40,  -8.00,   2.00
2,1, 7,21, 0, 1, 0.00,60.00,SummerDesignDay
7,18.966
47,0.0
74,28.705693337705
75,28.86188474357067
76,-98.57006323553759
77,-98.48081210957601
2,1, 7,21, 0, 2, 0.00,60.00,SummerDesignDay
7,18.244
47,0.0
74,28.42423858121798
75,28.57998637444778
76,-96.30569888897606
77,-96.81901666419344
2,1, 7,21, 0, 3, 0.00,60.00,SummerDesignDay
7,17.731
47,0.0
74,28.150789399284468
75,28.305871705638518
76,-94.16366791763147
77,-94.42304226077772
2,1, 7,21, 0, 4, 0.00,60.00,SummerDesignDay
7,17.275000000000003
47,0.0
74,27.87859182951218
75,28.03489321434587
76,-94.51349321873703
77,-94.40166964599983
2,1, 7,21, 0, 5, 0.00,60.00,SummerDesignDay
7,16.913999999999999
47,0.0
74,27.609628052522994
75,27.76485086836535
76,-92.86651775142156
77,-93.2398436408398
2,1, 7,21, 0, 6, 0.00,60.00,SummerDesignDay
7,16.990000000000003
47,0.0
74,27.546507031179354
75,27.582095282641
76,5.966266539142765
77,-19.26640494622465
2,1, 7,21, 0, 7, 0.00,60.00,SummerDesignDay
7,17.769
47,0.0
74,27.96347959996211
75,27.83142702483948
76,127.3324758190621
77,125.65324504134675
2,1, 7,21, 0, 8, 0.00,60.00,SummerDesignDay
7,19.783
47,0.0
74,28.362296180690767
75,28.205993810882068
76,137.8085311942936
77,134.07704892803128
2,1, 7,21, 0, 9, 0.00,60.00,SummerDesignDay
7,22.557
47,0.0
74,28.814043313819309
75,28.64489028822714
76,167.16440280796435
77,163.78026320857047
2,1, 7,21, 0,10, 0.00,60.00,SummerDesignDay
7,25.255000000000004
47,0.0
74,29.317687025312023
75,29.139894123199566
76,169.36678123180156
77,171.01760655630324
2,1, 7,21, 0,11, 0.00,60.00,SummerDesignDay
7,27.649
47,0.0
74,29.760414610266268
75,29.602833105811344
76,149.1922700685809
77,152.25251363837669
2,1, 7,21, 0,12, 0.00,60.00,SummerDesignDay
7,29.454
47,0.0
74,30.105481911820087
75,29.984373864525037
76,112.49598432220286
77,117.65941537534805
2,1, 7,21, 0,13, 0.00,60.00,SummerDesignDay
7,30.784
47,0.0
74,30.43271641575472
75,30.29563688348432
76,120.77346215405055
77,114.04990812592314
2,1, 7,21, 0,14, 0.00,60.00,SummerDesignDay
7,31.715
47,0.0
74,30.840529855887835
75,30.700221768691848
76,144.76461164881108
77,146.15260501767504
2,1, 7,21, 0,15, 0.00,60.00,SummerDesignDay
7,32.0
47,0.0
74,31.152986260773937
75,31.07750608250853
76,109.59144155334943
77,115.49915285493658
2,1, 7,21, 0,16, 0.00,60.00,SummerDesignDay
7,31.43
47,0.0
74,31.30064224776203
75,31.31844510239512
76,53.339173952302008
77,61.20645590579426
2,1, 7,21, 0,17, 0.00,60.00,SummerDesignDay
7,30.328
47,0.0
74,31.291893213085609
75,31.40127073994911
76,10.175744879275488
77,13.607936419164643
2,1, 7,21, 0,18, 0.00,60.00,SummerDesignDay
7,28.922
47,0.0
74,31.166288086589036
75,31.36416124141462
76,-49.0016997280881
77,-37.17879845085592
2,1, 7,21, 0,19, 0.00,60.00,SummerDesignDay
7,26.927
47,0.0
74,30.692233928568034
75,31.019175652868527
76,-203.51122492933346
77,-179.88342251437079
2,1, 7,21, 0,20, 0.00,60.00,SummerDesignDay
7,25.027
47,0.0
74,30.117318147372634
75,30.345210981818036
76,-196.07238579043369
77,-217.40991401148023
2,1, 7,21, 0,21, 0.00,60.00,SummerDesignDay
7,23.544999999999999
47,0.0
74,29.815406777545268
75,29.95902954868773
76,-98.54016186508247
77,-101.53963690093107
2,1, 7,21, 0,22, 0.00,60.00,SummerDesignDay
7,22.177
47,0.0
74,29.545196434706999
75,29.68889954924961
76,-93.25112623381412
77,-92.79764114828289
2,1, 7,21, 0,23, 0.00,60.00,SummerDesignDay
7,20.999000000000004
47,0.0
74,29.272405951131387
75,29.418792679988444
76,-93.2016684737151
77,-93.38775496856356
2,1, 7,21, 0,24, 0.00,60.00,SummerDesignDay
7,19.935000000000004
47,0.0
74,28.993508807873675
75,29.145749977596659
76,-96.52638536843947
77,-95.9487758204358
3,1, 7,21, 0,SummerDesignDay
51,29.36605130881541,26.847870828985955, 6,15,31.788259560150136,15,45
52,27.569439113124259,15.339867950820299, 5,60,47.540298736894509,13,45
53,1.0660537198229175,0.36035180609874359,17,45,1.3185651082961428,13,60
54,9.784087351742171,9.648625187405333,16,30,10.138860086621163, 7,15
55,29.51238499301901,26.857005733189817, 6,15,31.4403778058999,16,30
56,30.175879246215588,15.50346965868586, 5,60,53.476652622609659, 9,45
57,1.0825673367859954,0.172365445168682,17,30,1.4832715734501619, 9,45
58,11.644335408223539,11.426209347133464,12,15,11.987031759839125,19,60
59,29.263305856790625,26.85693032328752, 6,15,31.463858549031508,17,60
60,25.629618712057419,15.50346965868586, 5,60,35.68660278041338,14,60
61,0.8758074808942377,0.1331170092336625,19,15,1.1934256827592292, 6,15
62,11.653618734940208,11.475130723737389,19,15,12.083737215405055, 6,45
63,29.497336520041718,26.856862169389623, 6,15,32.874979048235989,17,15
64,30.032847301966965,15.503469658685864, 5,60,61.19631328205829,17,15
65,1.0837856168608833,0.34614003978420546,19,60,1.5003827019803538,17,15
66,11.650564513581723,11.42623236353077,19,45,12.057767270775868, 7,15
67,29.464371526430189,28.199314129452746, 7,60,30.723611619422564,19,15
68,29.46435249957408,28.199314129452746, 8,15,30.723611619422564,19,30
69,0.9682653855285858,0.19441352957692679, 8,60,1.393769743834552, 6,15
70,29.54523513668229,27.251379276498409, 6,15,31.675955644396109,16,15
71,32.360623419105959,12.868293618488546, 5,60,61.858489976610709,13,45
72,0.8112058719930055,0.18411257888734265, 7,45,1.1770759194140955,20,15
73,13.389028050642276,13.08708698835993,17,45,14.020231957498219,19,45
8,0.0,0, 1,15,0, 1,15
9,9.,9, 1,15,9, 1,15
4,1, 7
48,30412800.0,316800.0,21, 1,15,316800.0,21, 1,15
49,0.0,0.0,21, 1,15,0.0,21, 1,15
50,-30412800.0,-316800.0,21, 1,15,-316800.0,21, 1,15
1,RUN PERIOD 1,  37.62,-122.40,  -8.00,   2.00
2,1, 1, 1, 0, 1, 0.00,60.00,Tuesday
7,7.0125
47,0.0
74,12.0813600271991
75,12.218501038873509
76,-82.68578118890614
77,-79.7323040875146
2,1, 1, 1, 0, 2, 0.00,60.00,Tuesday
7,7.2
47,0.0
74,11.972580792489632
75,12.050980253942957
76,-28.125142561958066
77,-38.6939789188597
2,1, 1, 1, 0, 3, 0.00,60.00,Tuesday
7,6.8875
47,0.0
74,11.861059134797719
75,11.965325795278446
76,-50.74408512811174
77,-43.53660375453508
2,1, 1, 1, 0, 4, 0.00,60.00,Tuesday
7,6.324999999999999
47,0.0
74,11.636671155187632
75,11.777728865071837
76,-87.81354825043406
77,-83.39599320796242
2,1, 1, 1, 0, 5, 0.00,60.00,Tuesday
7,5.0375
47,0.0
74,11.41688420933646
75,11.546435886334458
76,-76.50140840575743
77,-79.97120114822659
2,1, 1, 1, 0, 6, 0.00,60.00,Tuesday
7,4.4
47,0.0
74,11.214654980329044
75,11.345239192560057
76,-74.84972552195913
77,-74.55842779754849
2,1, 1, 1, 0, 7, 0.00,60.00,Tuesday
7,5.4624999999999999
47,0.0
74,11.029924033796249
75,11.153780447171205
76,-67.26572082253542
77,-68.39340398511024
2,1, 1, 1, 0, 8, 0.00,60.00,Tuesday
7,5.4125
47,0.0
74,11.186940108915529
75,11.086588271433336
76,96.14244331099542
77,49.529864189475947
2,1, 1, 1, 0, 9, 0.00,60.00,Tuesday
7,6.750000000000001
47,0.0
74,12.292650013334189
75,11.771415872004527
76,491.2255775323416
77,410.1592185765578
2,1, 1, 1, 0,10, 0.00,60.00,Tuesday
7,8.487499999999999
47,0.0
74,13.148701256491947
75,12.63326579023933
76,605.4025662986602
77,502.4971317312644
2,1, 1, 1, 0,11, 0.00,60.00,Tuesday
7,9.2125
47,0.0
74,13.626271744813723
75,13.549749609684195
76,245.90996633693727
77,293.5058285197393
2,1, 1, 1, 0,12, 0.00,60.00,Tuesday
7,9.775
47,0.0
74,13.823653600077187
75,13.889823006564207
76,63.65994132876951
77,66.49275613548694
2,1, 1, 1, 0,13, 0.00,60.00,Tuesday
7,10.375
47,0.0
74,14.059942518325429
75,14.069864757046087
76,92.63365007737598
77,82.28996001642112
2,1, 1, 1, 0,14, 0.00,60.00,Tuesday
7,10.9125
47,0.0
74,14.601500245413398
75,14.497076436179589
76,217.77308567446029
77,203.92486454260416
2,1, 1, 1, 0,15, 0.00,60.00,Tuesday
7,12.85
47,0.0
74,15.09902952687068
75,15.10677137559056
76,180.58340987162914
77,201.02641686155455
2,1, 1, 1, 0,16, 0.00,60.00,Tuesday
7,13.9
47,0.0
74,14.768135669951953
75,15.169373361193554
76,-178.1692349227461
77,-121.39392794258942
2,1, 1, 1, 0,17, 0.00,60.00,Tuesday
7,12.15
47,0.0
74,13.795835095761378
75,14.288196438336702
76,-366.1639648983054
77,-378.65512967627935
2,1, 1, 1, 0,18, 0.00,60.00,Tuesday
7,11.1
47,0.0
74,13.384179239768308
75,13.575099573794047
76,-155.8661146980211
77,-178.1473872829881
2,1, 1, 1, 0,19, 0.00,60.00,Tuesday
7,10.7875
47,0.0
74,13.165925099816809
75,13.284329868698342
76,-77.48184845855787
77,-81.81390942465679
2,1, 1, 1, 0,20, 0.00,60.00,Tuesday
7,10.6
47,0.0
74,13.046207121872321
75,13.12695415050419
76,-39.85089517258442
77,-44.39732151429878
2,1, 1, 1, 0,21, 0.00,60.00,Tuesday
7,9.5375
47,0.0
74,12.874241744805684
75,12.993555882100477
76,-70.51525331073705
77,-63.217905145696779
2,1, 1, 1, 0,22, 0.00,60.00,Tuesday
7,9.2125
47,0.0
74,12.716870303561768
75,12.811739017917605
76,-50.7192150272766
77,-57.15571427838245
2,1, 1, 1, 0,23, 0.00,60.00,Tuesday
7,8.4
47,0.0
74,12.515135504942512
75,12.649968252358239
76,-82.80140130648664
77,-74.57719074783124
2,1, 1, 1, 0,24, 0.00,60.00,Tuesday
7,7.1125
47,0.0
74,12.295828736819818
75,12.421149716566177
76,-75.30750401006589
77,-79.61105548064053
3,1, 1, 1, 0,Tuesday
51,13.242476187157707,10.460491341749109, 8,15,17.39367169244392,15,30
52,20.341273634116367,2.8943728850214649, 6,60,56.373789834403108,15,30
53,1.2297584185764426,0.7797685842487538,17,30,1.802737806496126,11,15
54,5.00331676431848,1.63801110500421, 8,45,7.7069580671903019, 5,60
55,12.834950645542604,10.46018808420102, 8,15,15.276015649988029,15,60
56,13.320892770206575,2.89397672400617, 6,60,44.93050537910093,10,30
57,1.046085117764621,0.15851410337115597,16,15,1.7091455718064426,10,15
58,4.72532590188337,1.7006143983703768, 8,15,7.499114478548161,17,30
59,12.575847075786508,10.460189405704784, 8,15,15.276015649992372,15,60
60,9.038050039507687,2.9450327251340395, 6,60,18.65055779753233,15,45
61,0.9072038853778497,0.15851410324161828,16,15,1.1507979717130017,17,45
62,4.414842528438251,0.8537015628121456, 9,30,7.863275002876076,17,30
63,12.749155813038515,10.460468704452046, 8,15,16.943271510427676,15,60
64,11.89357574269386,2.8943728850214645, 6,60,46.198507804301218,15,60
65,0.9916866736791814,0.23122526387524748,11,60,1.5853701401667453,15,45
66,4.581139122006259,0.853701516227945, 9,30,7.821314039067222,16,60
67,12.810839092432362,11.627618945914977, 8,60,13.889526130039295,17,15
68,12.81085557532692,11.627618945914977, 9,15,13.889526130039295,17,30
69,1.027541707185888,0.18420518767982933, 9,45,1.3021438771418559, 8,30
70,12.783656239733832,10.655129465775934, 8,15,15.43974047328151,15,30
71,10.694053112387623,-2.944069836995301, 8,30,34.860752681891749,14,45
72,0.8791997699721899,0.23273717692076979, 9,15,1.300177841800869,17,45
73,5.21479925039463,1.158067756274657, 9,15,8.987283060516301,17,30
8,0.0,0, 1,15,0, 1,15
9,3.,3, 1,15,3, 1,15
2,2, 1, 2, 0, 1, 0.00,60.00,Wednesday
7,8.075000000000001
47,0.0
74,12.211132119088238
75,12.281049115226726
76,-22.81513770322917
77,-31.000821573124879
2,2, 1, 2, 0, 2, 0.00,60.00,Wednesday
7,7.15
47,0.0
74,11.939809511066138
75,12.123578507306185
76,-126.0423861760208
77,-103.74561968397451
2,2, 1, 2, 0, 3, 0.00,60.00,Wednesday
7,5.7875
47,0.0
74,11.60817414003198
75,11.766953108128423
76,-106.33864328900356
77,-118.35179504136642
2,2, 1, 2, 0, 4, 0.00,60.00,Wednesday
7,4.5375
47,0.0
74,11.328332589471226
75,11.49523965284
76,-105.64966471211869
77,-102.47508823090294
2,2, 1, 2, 0, 5, 0.00,60.00,Wednesday
7,4.9624999999999999
47,0.0
74,11.180378625096115
75,11.280206971244683
76,-38.49707689762174
77,-51.525304515013178
2,2, 1, 2, 0, 6, 0.00,60.00,Wednesday
7,6.6
47,0.0
74,11.195626430030464
75,11.246857139367725
76,3.8236569423397066
77,1.567207696189981
2,2, 1, 2, 0, 7, 0.00,60.00,Wednesday
7,7.575
47,0.0
74,11.194897986805339
75,11.249454881921944
76,-8.033057671353241
77,-4.880589087776007
2,2, 1, 2, 0, 8, 0.00,60.00,Wednesday
7,7.425
47,0.0
74,11.27148294253917
75,11.245376361880695
76,32.79869569659197
77,18.721034872016216
2,2, 1, 2, 0, 9, 0.00,60.00,Wednesday
7,9.325000000000001
47,0.0
74,11.841354088124377
75,11.566459278226948
76,201.70511552445204
77,182.3688509844307
2,2, 1, 2, 0,10, 0.00,60.00,Wednesday
7,11.287499999999998
47,0.0
74,12.444188587219518
75,12.217399240796658
76,247.61651797322043
77,252.93818694019303
2,2, 1, 2, 0,11, 0.00,60.00,Wednesday
7,13.075
47,0.0
74,13.0137368309435
75,12.832841753566982
76,233.29896890261314
77,224.68678709301396
2,2, 1, 2, 0,12, 0.00,60.00,Wednesday
7,13.9
47,0.0
74,13.505915821606952
75,13.44052316509007
76,172.28157515068865
77,194.47708710230396
2,2, 1, 2, 0,13, 0.00,60.00,Wednesday
7,13.9
47,0.0
74,14.10661744059382
75,13.947918396447264
76,256.2479489290913
77,229.29055450832676
2,2, 1, 2, 0,14, 0.00,60.00,Wednesday
7,13.9
47,0.0
74,14.410258500565597
75,14.471409298922412
76,75.55632240398926
77,111.51298462203477
2,2, 1, 2, 0,15, 0.00,60.00,Wednesday
7,12.837499999999999
47,0.0
74,14.465218653879969
75,14.59781516321989
76,31.975233987583534
77,34.66865512236932
2,2, 1, 2, 0,16, 0.00,60.00,Wednesday
7,12.575
47,0.0
74,14.22610134670579
75,14.531503576570913
76,-120.33672542314487
77,-87.61582914165563
2,2, 1, 2, 0,17, 0.00,60.00,Wednesday
7,11.7375
47,0.0
74,13.418104388262944
75,13.849168738039504
76,-308.8013214295067
77,-313.0276848375616
2,2, 1, 2, 0,18, 0.00,60.00,Wednesday
7,10.7875
47,0.0
74,13.009437800875606
75,13.215902064892685
76,-165.52825622213369
77,-175.93168026162167
2,2, 1, 2, 0,19, 0.00,60.00,Wednesday
7,11.287499999999998
47,0.0
74,12.768516146504514
75,12.882420444220449
76,-76.57782564574421
77,-89.28626493888993
2,2, 1, 2, 0,20, 0.00,60.00,Wednesday
7,11.7
47,0.0
74,12.70520715986089
75,12.760205389991889
76,-18.06606104125146
77,-23.9521032132757
2,2, 1, 2, 0,21, 0.00,60.00,Wednesday
7,10.6375
47,0.0
74,12.586069177137319
75,12.686343502919455
76,-53.511668163151487
77,-44.10076635771135
2,2, 1, 2, 0,22, 0.00,60.00,Wednesday
7,9.3125
47,0.0
74,12.31554122823092
75,12.46821152595978
76,-104.26266962534857
77,-99.13301144597983
2,2, 1, 2, 0,23, 0.00,60.00,Wednesday
7,9.2125
47,0.0
74,12.108072003501333
75,12.220441573058139
76,-64.75682629365829
77,-73.51136960668655
2,2, 1, 2, 0,24, 0.00,60.00,Wednesday
7,9.0875
47,0.0
74,11.93986026259185
75,12.057412322894562
76,-64.85654543725564
77,-62.06570961296501
3,2, 1, 2, 0,Wednesday
51,12.842630465816593,10.667145223210606, 4,60,16.76686870119886,13,60
52,17.872178064470896,1.4659087511676903, 4,60,58.665717610481809,13,45
53,1.1651874184548177,0.43215663306780779, 8,60,1.8123638661458368,13,45
54,6.018128888166204,1.6160395532490873, 2,60,14.15237272127244, 9,60
55,12.477451602333672,10.667145223719987, 4,60,14.736396883722906,14,15
56,11.651837742287535,1.4659087552891286, 4,60,29.811189305944688,10,30
57,1.016583984607984,0.313640839558454,15,45,1.4032559104256402,10,45
58,5.765686468948314,1.6740964904017657, 4,60,14.133132321471937, 9,60
59,12.339421512596426,10.666388946164103, 5,15,14.736391531986279,14,15
60,9.434849275729763,1.4659087552891288, 4,60,21.223112998172767,13,60
61,0.9324240948602158,0.31364083964574149,15,45,1.174322672945551, 5,15
62,5.425659465379728,1.6740964904017657, 4,60,11.742690651305845, 9,60
63,12.485373729918676,10.666388946222759, 5,15,15.806149590089238,15,30
64,11.778489174727492,1.4659087511676897, 4,60,36.80497992808373,15,60
65,1.0036689714684615,0.4548139268253664, 9,45,1.3978342039617229,15,45
66,5.574971494841247,1.6160395604733538, 2,60,11.742690651305845, 9,60
67,12.588665435756213,11.60456518412456, 8,60,13.52336465461971,16,60
68,12.592499885727336,11.60456518412456, 9,15,13.52336465461971,17,15
69,1.019355621855734,0.2964245930204896,18,15,1.3905898474871928, 5,30
70,12.473742541808653,10.926425424603386, 5,30,14.841956594112354,13,60
71,9.12968161759599,-4.785160832343683, 4,60,39.31490288608894,13,45
72,0.8695733121251346,0.2842060097472977,15,60,1.2566987167759963,17,45
73,6.615855394275204,1.4582882621679918,18,60,16.770935734569048, 9,45
8,0.0,0, 1,15,0, 1,15
9,4.,4, 1,15,4, 1,15
2,3, 1, 3, 0, 1, 0.00,60.00,Thursday
7,9.2125
47,0.0
74,11.909536668060767
75,11.952041497136804
76,-0.6505175429970702
77,-12.102990565510762
2,3, 1, 3, 0, 2, 0.00,60.00,Thursday
7,9.775
47,0.0
74,11.958225331675628
75,11.98115523986609
76,10.606021265947124
77,12.437957068152315
2,3, 1, 3, 0, 3, 0.00,60.00,Thursday
7,11.375
47,0.0
74,11.960935059109435
75,11.995327619294239
76,-4.2028251122975839
77,-0.8544031588535264
2,3, 1, 3, 0, 4, 0.00,60.00,Thursday
7,13.2625
47,0.0
74,12.130040410589322
75,12.04103600195267
76,48.507677135287767
77,38.360684947803679
2,3, 1, 3, 0, 5, 0.00,60.00,Thursday
7,13.212500000000003
47,0.0
74,12.187848093425722
75,12.150667678818726
76,19.55973481083703
77,27.116099386752734
2,3, 1, 3, 0, 6, 0.00,60.00,Thursday
7,12.425
47,0.0
74,12.123897502920223
75,12.155227653395358
76,-12.217390231845169
77,-9.52831776663334
2,3, 1, 3, 0, 7, 0.00,60.00,Thursday
7,11.5125
47,0.0
74,12.028502158307319
75,12.092860286357779
76,-33.48053976788272
77,-30.915412112537188
2,3, 1, 3, 0, 8, 0.00,60.00,Thursday
7,11.1
47,0.0
74,12.060365009337055
75,12.03093851768645
76,13.210037626992108
77,-1.256695076310507
2,3, 1, 3, 0, 9, 0.00,60.00,Thursday
7,11.474999999999998
47,0.0
74,12.524904847995176
75,12.284795476334863
76,184.30270402554977
77,160.67382070542599
2,3, 1, 3, 0,10, 0.00,60.00,Thursday
7,12.7
47,0.0
74,13.231664277002825
75,12.970889479267367
76,297.9709069386412
77,291.806379273434
2,3, 1, 3, 0,11, 0.00,60.00,Thursday
7,12.6125
47,0.0
74,13.626546016372679
75,13.608356293910369
76,128.47687762740956
77,162.955301949061
2,3, 1, 3, 0,12, 0.00,60.00,Thursday
7,13.95
47,0.0
74,13.970938449377674
75,13.882107426881888
76,142.98407340312469
77,118.52867633589958
2,3, 1, 3, 0,13, 0.00,60.00,Thursday
7,15.375000000000002
47,0.0
74,14.50238490584288
75,14.38995155913205
76,202.04461272524748
77,204.78948764127939
2,3, 1, 3, 0,14, 0.00,60.00,Thursday
7,15.912500000000002
47,0.0
74,15.096737081178043
75,14.992457271716365
76,224.8732220734736
77,227.19648344336077
2,3, 1, 3, 0,15, 0.00,60.00,Thursday
7,16.1
47,0.0
74,15.182470235604697
75,15.336136333526492
76,5.715838188786613
77,37.31750408613667
2,3, 1, 3, 0,16, 0.00,60.00,Thursday
7,14.725
47,0.0
74,14.780786721004653
75,15.125250223497762
76,-170.19456764016523
77,-142.7753975009953
2,3, 1, 3, 0,17, 0.00,60.00,Thursday
7,13.9
47,0.0
74,13.959783448520886
75,14.383585615490578
76,-312.20362240208689
77,-318.7199559843267
2,3, 1, 3, 0,18, 0.00,60.00,Thursday
7,13.212500000000003
47,0.0
74,13.682552108302583
75,13.808656075051502
76,-99.78921251025898
77,-125.17680917994785
2,3, 1, 3, 0,19, 0.00,60.00,Thursday
7,12.425
47,0.0
74,13.540219726840789
75,13.63701039240791
76,-57.36043480478709
77,-54.04957183123278
2,3, 1, 3, 0,20, 0.00,60.00,Thursday
7,11.2
47,0.0
74,13.290687866923307
75,13.433867429245915
76,-97.11576434860594
77,-91.2725602776608
2,3, 1, 3, 0,21, 0.00,60.00,Thursday
7,10.225
47,0.0
74,13.137978172438042
75,13.221865070828253
76,-43.29850123225866
77,-54.53417563369982
2,3, 1, 3, 0,22, 0.00,60.00,Thursday
7,9.3125
47,0.0
74,12.932798892957035
75,13.073829922850008
76,-88.73336145403568
77,-76.56670436338789
2,3, 1, 3, 0,23, 0.00,60.00,Thursday
7,8.9
47,0.0
74,12.807400299400714
75,12.880753800542621
76,-30.50243403175206
77,-44.61936502327184
2,3, 1, 3, 0,24, 0.00,60.00,Thursday
7,8.9
47,0.0
74,12.760689594046724
75,12.827130358595284
76,-22.279147425594667
77,-19.577928149888675
3,3, 1, 3, 0,Thursday
51,13.527356675852659,11.560341161703939, 1,15,17.3011864156122,14,60
52,19.885663386092216,6.249966604179056,22,60,54.105403434549959,14,15
53,1.0364321511133257,0.13824542104925817, 5,60,1.7315425714150399,14,30
54,7.81186423528426,1.6737420345320038,22,60,16.913216714746534, 5,60
55,13.203073929306499,11.54572186948183, 1,15,15.604236484834102,14,60
56,14.317678402910872,6.13529653188252, 1,15,34.40692342067292,10,60
57,0.8976487121552972,0.2554096050731419, 8,45,1.4577324071978338,11,15
58,8.96435063349797,1.7217186185866865,22,60,25.565500340240715, 5,60
59,13.071941731426783,11.54572186948183, 1,15,15.604323192598205,14,60
60,12.191100962402843,6.135296531882525, 1,15,22.33187134209463,14,45
61,0.8033022962363882,0.2015111695905688, 9,15,1.1017333649615547,17,45