Program Version,EnergyPlus, Version 9.4.0-998c4b761e, YMD=2020.12.29 04:53
1,5,Environment Title[],Latitude[deg],Longitude[deg],Time Zone[],Elevation[m]
2,8,Day of Simulation[],Month[],Day of Month[],DST Indicator[1=yes 0=no],Hour[],StartMinute[],EndMinute[],DayType
3,5,Cumulative Day of Simulation[],Month[],Day of Month[],DST Indicator[1=yes 0=no],DayType  ! When Daily Report Variables Requested
4,2,Cumulative Days of Simulation[],Month[]  ! When Monthly Report Variables Requested
5,1,Cumulative Days of Simulation[] ! When Run Period Report Variables Requested
6,1,Calendar Year of Simulation[] ! When Annual Report Variables Requested
7,1,Environment,Site Outdoor Air Drybulb Temperature [C] !Hourly
8,7,Environment,Site Daylight Saving Time Status [] !Daily [Value,Min,Hour,Minute,Max,Hour,Minute]
9,7,Environment,Site Day Type Index [] !Daily [Value,Min,Hour,Minute,Max,Hour,Minute]
47,1,ZONE ONE,Zone Total Internal Latent Gain Energy [J] !Hourly
48,9,TEST 352A,Other Equipment Total Heating Energy [J] !Monthly [Value,Min,Day,Hour,Minute,Max,Day,Hour,Minute]
49,9,ZONE ONE,Zone Other Equipment Total Heating Energy [J] !Monthly [Value,Min,Day,Hour,Minute,Max,Day,Hour,Minute]
50,9,TEST 352 MINUS,Other Equipment Total Heating Energy [J] !Monthly [Value,Min,Day,Hour,Minute,Max,Day,Hour,Minute]
51,7,ZN001:WALL001,Surface Inside Face Temperature [C] !Daily [Value,Min,Hour,Minute,Max,Hour,Minute]
52,7,ZN001:WALL001,Surface Outside Face Temperature [C] !Daily [Value,Min,Hour,Minute,Max,Hour,Minute]
53,7,ZN001:WALL001,Surface Inside Face Convection Heat Transfer Coefficient [W/m2-K] !Daily [Value,Min,Hour,Minute,Max,Hour,Minute]
54,7,ZN001:WALL001,Surface Outside Face Convection Heat Transfer Coefficient [W/m2-K] !Daily [Value,Min,Hour,Minute,Max,Hour,Minute]
55,7,ZN001:WALL002,Surface Inside Face Temperature [C] !Daily [Value,Min,Hour,Minute,Max,Hour,Minute]
56,7,ZN001:WALL002,Surface Outside Face Temperature [C] !Daily [Value,Min,Hour,Minute,Max,Hour,Minute]
57,7,ZN001:WALL002,Surface Inside Face Convection Heat Transfer Coefficient [W/m2-K] !Daily [Value,Min,Hour,Minute,Max,Hour,Minute]
58,7,ZN001:WALL002,Surface Outside Face Convection Heat Transfer Coefficient [W/m2-K] !Daily [Value,Min,Hour,Minute,Max,Hour,Minute]
59,7,ZN001:WALL003,Surface Inside Face Temperature [C] !Daily [Value,Min,Hour,Minute,Max,Hour,Minute]
60,7,ZN001:WALL003,Surface Outside Face Temperature [C] !Daily [Value,Min,Hour,Minute,Max,Hour,Minute]
61,7,ZN001:WALL003,Surface Inside Face Convection Heat Transfer Coefficient [W/m2-K] !Daily [Value,Min,Hour,Minute,Max,Hour,Minute]
62,7,ZN001:WALL003,Surface Outside Face Convection Heat Transfer Coefficient [W/m2-K] !Daily [Value,Min,Hour,Minute,Max,Hour,Minute]
63,7,ZN001:WALL004,Surface Inside Face Temperature [C] !Daily [Value,Min,Hour,Minute,Max,Hour,Minute]
64,7,ZN001:WALL004,Surface Outside Face Temperature [C] !Daily [Value,Min,Hour,Minute,Max,Hour,Minute]
65,7,ZN001:WALL004,Surface Inside Face Convection Heat Transfer Coefficient [W/m2-K] !Daily [Value,Min,Hour,Minute,Max,Hour,Minute]
66,7,ZN001:WALL004,Surface Outside Face Convection Heat Transfer Coefficient [W/m2-K] !Daily [Value,Min,Hour,Minute,Max,Hour,Minute]
67,7,ZN001:FLR001,Surface Inside Face Temperature [C] !Daily [Value,Min,Hour,Minute,Max,Hour,Minute]
68,7,ZN001:FLR001,Surface Outside Face Temperature [C] !Daily [Value,Min,Hour,Minute,Max,Hour,Minute]
69,7,ZN001:FLR001,Surface Inside Face Convection Heat Transfer Coefficient [W/m2-K] !Daily [Value,Min,Hour,Minute,Max,Hour,Minute]
70,7,ZN001:ROOF001,Surface Inside Face Temperature [C] !Daily [Value,Min,Hour,Minute,Max,Hour,Minute]
71,7,ZN001:ROOF001,Surface Outside Face Temperature [C] !Daily [Value,Min,Hour,Minute,Max,Hour,Minute]
72,7,ZN001:ROOF001,Surface Inside Face Convection Heat Transfer Coefficient [W/m2-K] !Daily [Value,Min,Hour,Minute,Max,Hour,Minute]
73,7,ZN001:ROOF001,Surface Outside Face Convection Heat Transfer Coefficient [W/m2-K] !Daily [Value,Min,Hour,Minute,Max,Hour,Minute]
74,1,ZONE ONE,Zone Mean Radiant Temperature [C] !Hourly
75,1,ZONE ONE,Zone Mean Air Temperature [C] !Hourly
76,1,ZONE ONE,Zone Air Heat Balance Surface Convection Rate [W] !Hourly
77,1,ZONE ONE,Zone Air Heat Balance Air Energy Storage Rate [W] !Hourly
End of Data Dictionary
1,DENVER CENTENNIAL  GOLDEN   N ANN HTG 99% CONDNS DB,  39.74,-105.18,  -7.00,1829.00
2,1,12,21, 0, 1, 0.00,60.00,WinterDesignDay
7,-15.5
47,0.0
74,-18.20864537828613
75,-18.21135382055016
76,-0.02693455162748304
77,-0.026988224920447939
2,1,12,21, 0, 2, 0.00,60.00,WinterDesignDay
7,-15.5
47,0.0
74,-18.20872872127243
75,-18.21143504005103
76,-0.02650914659034198
77,-0.026561973364605829
2,1,12,21, 0, 3, 0.00,60.00,WinterDesignDay
7,-15.5
47,0.0
74,-18.208810746704438
75,-18.211514976728837
76,-0.026090450725469784
77,-0.02614244428793779
2,1,12,21, 0, 4, 0.00,60.00,WinterDesignDay
7,-15.5
47,0.0
74,-18.20889147540347
75,-18.21159365081663
76,-0.025678358575772277
77,-0.025729532018978507
2,1,12,21, 0, 5, 0.00,60.00,WinterDesignDay
7,-15.5
47,0.0
74,-18.208970927862116
75,-18.211671082229409
76,-0.025272766323892527
77,-0.025323132556189386
2,1,12,21, 0, 6, 0.00,60.00,WinterDesignDay
7,-15.5
47,0.0
74,-18.209049124249323
75,-18.21174729056902
76,-0.024873571772281
77,-0.02492314347433195
2,1,12,21, 0, 7, 0.00,60.00,WinterDesignDay
7,-15.5
47,0.0
74,-18.209126084415574
75,-18.211822295129069
76,-0.02448067430831813
77,-0.024529463983054935
2,1,12,21, 0, 8, 0.00,60.00,WinterDesignDay
7,-15.5
47,0.0
74,-18.20920182789787
75,-18.21189611489972
76,-0.024093974903470984
77,-0.024141994852885277
2,1,12,21, 0, 9, 0.00,60.00,WinterDesignDay
7,-15.5
47,0.0
74,-18.209276373924703
75,-18.211968768572448
76,-0.0237133760665027
77,-0.023760638394591119
2,1,12,21, 0,10, 0.00,60.00,WinterDesignDay
7,-15.5
47,0.0
74,-18.20934974142089
75,-18.212040274544685
76,-0.023338781836533597
77,-0.02338529846688552
2,1,12,21, 0,11, 0.00,60.00,WinterDesignDay
7,-15.5
47,0.0
74,-18.209421949012353
75,-18.212110650924445
76,-0.022970097736221719
77,-0.023015880406470954
2,1,12,21, 0,12, 0.00,60.00,WinterDesignDay
7,-15.5
47,0.0
74,-18.20949301503088
75,-18.212179915534795
76,-0.022607230783939337
77,-0.022652291042711403
2,1,12,21, 0,13, 0.00,60.00,WinterDesignDay
7,-15.5
47,0.0
74,-18.20956295751872
75,-18.21224808591835
76,-0.022250089446661293
77,-0.022294438654798557
2,1,12,21, 0,14, 0.00,60.00,WinterDesignDay
7,-15.5
47,0.0
74,-18.209631794233148
75,-18.21231517934165
76,-0.02189858360878505
77,-0.021942232962507688
2,1,12,21, 0,15, 0.00,60.00,WinterDesignDay
7,-15.5
47,0.0
74,-18.209699542650986
75,-18.212381212799479
76,-0.02155262457798557
77,-0.021595585104606825
2,1,12,21, 0,16, 0.00,60.00,WinterDesignDay
7,-15.5
47,0.0
74,-18.20976621997302
75,-18.21244620301911
76,-0.0212121250456212
77,-0.02125440756787921
2,1,12,21, 0,17, 0.00,60.00,WinterDesignDay
7,-15.5
47,0.0
74,-18.20983184312832
75,-18.21251016646446
76,-0.020876999072508619
77,-0.020918614279406383
2,1,12,21, 0,18, 0.00,60.00,WinterDesignDay
7,-15.5
47,0.0
74,-18.209896428778586
75,-18.212573119340303
76,-0.020547162055558844
77,-0.02058812044256069
2,1,12,21, 0,19, 0.00,60.00,WinterDesignDay
7,-15.5
47,0.0
74,-18.20995999332228
75,-18.212635077596219
76,-0.02022253072183755
77,-0.020262842643043637
2,1,12,21, 0,20, 0.00,60.00,WinterDesignDay
7,-15.5
47,0.0
74,-18.21002255289889
75,-18.212696056930669
76,-0.019903023098202689
77,-0.01994269872902806
2,1,12,21, 0,21, 0.00,60.00,WinterDesignDay
7,-15.5
47,0.0
74,-18.210084123392897
75,-18.21275607279486
76,-0.019588558501619337
77,-0.019627607868575468
2,1,12,21, 0,22, 0.00,60.00,WinterDesignDay
7,-15.5
47,0.0
74,-18.210144720437904
75,-18.21281514039671
76,-0.01927905750991954
77,-0.01931749047830559
2,1,12,21, 0,23, 0.00,60.00,WinterDesignDay
7,-15.5
47,0.0
74,-18.210204359420517
75,-18.21287327470455
76,-0.01897444194872344
77,-0.01901226821772349
2,1,12,21, 0,24, 0.00,60.00,WinterDesignDay
7,-15.5
47,0.0
74,-18.21026305548427
75,-18.212930490450959
76,-0.018674634865961438
77,-0.01871186400083917
3,1,12,21, 0,WinterDesignDay
51,-18.14503745591747,-18.145757590298357,24,60,-18.14422169658082, 1,15
52,-17.4635473417154,-17.463575491452507,24,60,-17.463515454117564, 1,15
53,0.5323350994249654,0.5322044383507613, 1,15,0.5324505718144811,24,60
54,7.151445020273765,7.151444105740373,24,60,7.1514460562650579, 1,15
55,-18.14503745591747,-18.145757590298357,24,60,-18.14422169658082, 1,15
56,-17.4635473417154,-17.463575491452507,24,60,-17.463515454117564, 1,15
57,0.5323350994249654,0.5322044383507613, 1,15,0.5324505718144811,24,60
58,7.151445020273765,7.151444105740373,24,60,7.1514460562650579, 1,15
59,-18.14081310878113,-18.141533297832166,24,60,-18.139997287677099, 1,15
60,-17.417318742231786,-17.417346256823764,24,60,-17.41728757411679, 1,15
61,0.5432718403104548,0.5431465456771151, 1,15,0.5433825719469774,24,60
62,7.416426177953677,7.416425105689358,24,60,7.416427392620845, 1,15
63,-18.14081310878113,-18.141533297832166,24,60,-18.139997287677099, 1,15
64,-17.417318742231786,-17.417346256823764,24,60,-17.41728757411679, 1,15
65,0.5432718403104548,0.5431465456771151, 1,15,0.5433825719469774,24,60
66,7.416426177953677,7.416425105689358,24,60,7.416427392620845, 1,15
67,-18.21612362378681,-18.21700045449785,24,60,-18.21513032169014, 1,15
68,-18.216103896431237,-18.21698422811392,24,60,-18.215106628362436, 1,15
69,0.11993953386969179,0.11861978633773646, 1,15,0.12108790225506816,24,60
70,-18.282770431623324,-18.283536572608019,24,60,-18.28190255425872, 1,15
71,-20.30578027078142,-20.305791706819805,24,60,-20.30576731613179, 1,15
72,0.6281834676311572,0.6281748962828948, 1,15,0.6281908452107945,24,60
73,8.618881115572555,8.61888081536602,24,60,8.618881455644573, 1,15
8,0.0,0, 1,15,0, 1,15
9,10.,10, 1,15,10, 1,15
4,1,12
48,30412800.0,316800.0,21, 1,15,316800.0,21, 1,15
49,0.0,0.0,21, 1,15,0.0,21, 1,15
50,-30412800.0,-316800.0,21, 1,15,-316800.0,21, 1,15
1,DENVER CENTENNIAL  GOLDEN   N ANN CLG 1% CONDNS DB=>MWB,  39.74,-105.18,  -7.00,1829.00
2,1, 7,21, 0, 1, 0.00,60.00,SummerDesignDay
7,18.966
47,0.0
74,28.93733843510645
75,29.078607531641464
76,-80.270371994937
77,-80.21468963873423
2,1, 7,21, 0, 2, 0.00,60.00,SummerDesignDay
7,18.244
47,0.0
74,28.651440680991045
75,28.792642010485446
76,-78.19921730558278
77,-78.63671117051432
2,1, 7,21, 0, 3, 0.00,60.00,SummerDesignDay
7,17.731
47,0.0
74,28.373798702983487
75,28.51480031501085
76,-76.53412667638152
77,-76.74055282190868
2,1, 7,21, 0, 4, 0.00,60.00,SummerDesignDay
7,17.275000000000003
47,0.0
74,28.09741274069054
75,28.239723963213984
76,-76.95920754067795
77,-76.85998101091852
2,1, 7,21, 0, 5, 0.00,60.00,SummerDesignDay
7,16.913999999999999
47,0.0
74,27.824289181507444
75,27.965695005605939
76,-75.45583832802511
77,-75.77564904920276
2,1, 7,21, 0, 6, 0.00,60.00,SummerDesignDay
7,16.990000000000003
47,0.0
74,27.884422707483869
75,27.869083500476543
76,51.67267352279268
77,27.55663830623221
2,1, 7,21, 0, 7, 0.00,60.00,SummerDesignDay
7,17.769
47,0.0
74,28.293311055443519
75,28.19646835499545
76,97.95419158850832
77,101.6165940541175
2,1, 7,21, 0, 8, 0.00,60.00,SummerDesignDay
7,19.783
47,0.0
74,28.660173838912934
75,28.553245131123377
76,109.11437111791281
77,104.62109868444439
2,1, 7,21, 0, 9, 0.00,60.00,SummerDesignDay
7,22.557
47,0.0
74,29.137344914642357
75,29.008742106418059
76,141.1984833350959
77,138.35007908471975
2,1, 7,21, 0,10, 0.00,60.00,SummerDesignDay
7,25.255000000000004
47,0.0
74,29.63957900842792
75,29.51197759362869
76,133.7472706948919
77,135.9556525113971
2,1, 7,21, 0,11, 0.00,60.00,SummerDesignDay
7,27.649
47,0.0
74,30.073676581753366
75,29.96118794179616
76,114.47036234406339
77,117.11000552593882
2,1, 7,21, 0,12, 0.00,60.00,SummerDesignDay
7,29.454
47,0.0
74,30.406881643705395
75,30.32288647930954
76,84.50977087055166
77,88.61527182943418
2,1, 7,21, 0,13, 0.00,60.00,SummerDesignDay
7,30.784
47,0.0
74,30.759937847136969
75,30.645376401900298
76,107.59124139661839
77,100.62321847208723
2,1, 7,21, 0,14, 0.00,60.00,SummerDesignDay
7,31.715
47,0.0
74,31.167304714257459
75,31.069133828181369
76,115.30206911138547
77,117.79607565910306
2,1, 7,21, 0,15, 0.00,60.00,SummerDesignDay
7,32.0
47,0.0
74,31.46915491506991
75,31.43270298874781
76,81.76283029147807
77,86.91335719011068
2,1, 7,21, 0,16, 0.00,60.00,SummerDesignDay
7,31.43
47,0.0
74,31.597090985010604
75,31.645720075872384
76,33.80632033904688
77,40.34050196908517
2,1, 7,21, 0,17, 0.00,60.00,SummerDesignDay
7,30.328
47,0.0
74,31.566221724901327
75,31.69801882792385
76,0.3229716043466051
77,2.922066031524367
2,1, 7,21, 0,18, 0.00,60.00,SummerDesignDay
7,28.922
47,0.0
74,31.42715086958452
75,31.625257568740659
76,-52.46889363982568
77,-41.92580559978329
2,1, 7,21, 0,19, 0.00,60.00,SummerDesignDay
7,26.927
47,0.0
74,30.919250285933278
75,31.213699276999458
76,-187.20454782631635
77,-166.83029412592934
2,1, 7,21, 0,20, 0.00,60.00,SummerDesignDay
7,25.027
47,0.0
74,30.355967703580956
75,30.52214761366554
76,-138.1821307877607
77,-161.20568503664033
2,1, 7,21, 0,21, 0.00,60.00,SummerDesignDay
7,23.544999999999999
47,0.0
74,30.062035433327418
75,30.185397702613775
76,-75.09659344238125
77,-75.0330861570279
2,1, 7,21, 0,22, 0.00,60.00,SummerDesignDay
7,22.177
47,0.0
74,29.790208342088726
75,29.918431961821765
76,-75.4006446206458
77,-74.89196091695692
2,1, 7,21, 0,23, 0.00,60.00,SummerDesignDay
7,20.999000000000004
47,0.0
74,29.51315916903576
75,29.64477859624185
76,-75.74915954995837
77,-75.90683088878243
2,1, 7,21, 0,24, 0.00,60.00,SummerDesignDay
7,19.935000000000004
47,0.0
74,29.229786245788039
75,29.36726054139766
76,-78.75929291509319
77,-78.26939145820525
3,1, 7,21, 0,SummerDesignDay
51,29.657469205297347,27.1031482237491, 6,15,32.13041994141327,15,30
52,28.154411028341497,15.43595488037662, 5,60,49.0200409726373,13,45
53,1.069637592911993,0.22820553642133308,17,30,1.333141499977597,13,45
54,9.789675999433844,9.64856927229296,10,15,10.219994633751245, 6,60
55,29.786822370360868,27.11426329554783, 5,60,31.7285791273551,16,30
56,30.43637984026446,15.589301285290008, 5,60,53.375055423313, 9,30
57,1.0705736125297232,0.32103841124878948,17,15,1.4653694153731678, 9,30
58,11.647855311012388,11.426186741540568, 6,60,11.99386587408576,19,45
59,29.52907625991303,27.114247302664795, 5,60,31.728579127355088,16,30
60,25.76207679844448,15.589024974791084, 5,60,35.85337230592743,14,60
61,0.8660915588917075,0.1,19,15,1.190337707352824, 6,15
62,11.658904740375837,11.47396268151557,19,15,12.222869167418836, 6,30
63,29.77015901210927,27.110290330494153, 6,15,33.17914009351609,16,60
64,30.282246185759204,15.588754852406208, 5,60,61.658284033758729,16,60
65,1.0793746460955734,0.25207562676610537,10,30,1.4969509474969474,17,15
66,11.65507542332576,11.426584823928663,14,45,12.183437957355958, 6,60
67,29.738212853593866,28.46960140185364, 7,45,31.012309174612,19,15
68,29.738194019442504,28.46960140185364, 7,60,31.012309174612,19,30
69,0.9731742493506319,0.14407469354627337, 8,45,1.4079584920489615, 6,15
70,29.816987455750437,27.512815975840888, 6,15,31.960526777542,16,15
71,32.55048088581561,13.078280653529769, 5,60,61.48143628475624,13,45
72,0.7936812447801334,0.26383089533553008, 7,60,1.1315912265004942,20,15
73,13.388257133771149,13.087110166933075, 8,60,13.946429449430886, 6,60
8,0.0,0, 1,15,0, 1,15
9,9.,9, 1,15,9, 1,15
4,1, 7
48,30412800.0,316800.0,21, 1,15,316800.0,21, 1,15
49,0.0,0.0,21, 1,15,0.0,21, 1,15
50,-30412800.0,-316800.0,21, 1,15,-316800.0,21, 1,15
1,RUN PERIOD 1,  39.74,-105.18,  -7.00,1829.00
2,1, 1, 1, 0, 1, 0.00,60.00,Tuesday
7,-4.5
47,0.0
74,-0.6949252117693278
75,-0.6400018617821047
76,-6.0078525233507389
77,-8.213796406351833
2,1, 1, 1, 0, 2, 0.00,60.00,Tuesday
7,-3.0
47,0.0
74,-0.7002971177149409
75,-0.6632275740549468
76,-0.08301973807113594
77,-4.398376920021068
2,1, 1, 1, 0, 3, 0.00,60.00,Tuesday
7,-3.625
47,0.0
74,-0.8049480462641965
75,-0.7130236483512947
76,-44.94031415919692
77,-35.15682522997617
2,1, 1, 1, 0, 4, 0.00,60.00,Tuesday
7,-2.75
47,0.0
74,-0.8211628789929032
75,-0.8055730340997656
76,10.205648214511243
77,-3.196248916752851
2,1, 1, 1, 0, 5, 0.00,60.00,Tuesday
7,-2.0
47,0.0
74,-0.7527087440930258
75,-0.7424862174123368
76,12.1707193359354
77,16.879126021017706
2,1, 1, 1, 0, 6, 0.00,60.00,Tuesday
7,-1.375
47,0.0
74,-0.7774161602771176
75,-0.7384796575800563
76,-12.082759549155677
77,-8.199727471336985
2,1, 1, 1, 0, 7, 0.00,60.00,Tuesday
7,-1.0
47,0.0
74,-0.7726913947533176
75,-0.7674371668842224
76,5.260907211137743
77,-0.31896129610713289
2,1, 1, 1, 0, 8, 0.00,60.00,Tuesday
7,-1.0
47,0.0
74,-0.3578335971739886
75,-0.6006523143479566
76,172.92628076434245
77,125.3961805869264
2,1, 1, 1, 0, 9, 0.00,60.00,Tuesday
7,-0.375
47,0.0
74,0.49852685600183618
75,0.3046174682582109
76,301.2918303565103
77,348.9930584580244
2,1, 1, 1, 0,10, 0.00,60.00,Tuesday
7,1.25
47,0.0
74,0.44712229981244058
75,0.47432467986173457
76,31.515190202799788
77,-22.41431331734985
2,1, 1, 1, 0,11, 0.00,60.00,Tuesday
7,2.0
47,0.0
74,1.5237850798821782
75,1.3113366952617332
76,346.9879907530522
77,390.6325899039756
2,1, 1, 1, 0,12, 0.00,60.00,Tuesday
7,1.375
47,0.0
74,1.2634757262543573
75,1.5318021540897569
76,-113.35807202155003
77,-93.6088780518681
2,1, 1, 1, 0,13, 0.00,60.00,Tuesday
7,2.25
47,0.0
74,1.1618981276856267
75,1.2447356331598
76,-28.53063227225543
77,-47.35774289331887
2,1, 1, 1, 0,14, 0.00,60.00,Tuesday
7,2.375
47,0.0
74,1.0339448141853936
75,1.1628441403980486
76,-51.14057939630185
77,-39.51871061119971
2,1, 1, 1, 0,15, 0.00,60.00,Tuesday
7,1.375
47,0.0
74,0.7830534643650856
75,0.9408106232910013
76,-68.85305576904182
77,-72.15259787806966
2,1, 1, 1, 0,16, 0.00,60.00,Tuesday
7,1.0
47,0.0
74,0.7677760317687028
75,0.797386037686163
76,-9.145960256918898
77,-20.095204729616854
2,1, 1, 1, 0,17, 0.00,60.00,Tuesday
7,0.375
47,0.0
74,0.7198742312746559
75,0.8183162567396312
76,-33.29665528240628
77,-12.639440687401726
2,1, 1, 1, 0,18, 0.00,60.00,Tuesday
7,-0.625
47,0.0
74,0.46823047952356897
75,0.5795798158580025
76,-68.55838424511198
77,-78.5256021654981
2,1, 1, 1, 0,19, 0.00,60.00,Tuesday
7,-1.625
47,0.0
74,0.3142108121685714
75,0.3966638061538597
76,-48.606862545364069
77,-49.20497234845695
2,1, 1, 1, 0,20, 0.00,60.00,Tuesday
7,-3.25
47,0.0
74,0.12172217907283023
75,0.22439808173286769
76,-62.299396872761878
77,-59.324050062780248
2,1, 1, 1, 0,21, 0.00,60.00,Tuesday
7,-4.625
47,0.0
74,-0.08892574942306847
75,0.015915247313701539
76,-62.6889650706656
77,-63.86016162129035
2,1, 1, 1, 0,22, 0.00,60.00,Tuesday
7,-5.625
47,0.0
74,-0.2973437190248832
75,-0.1864788263731162
76,-63.802962091438157
77,-63.31024456075235
2,1, 1, 1, 0,23, 0.00,60.00,Tuesday
7,-6.625
47,0.0
74,-0.49868925090452256
75,-0.38827252422808669
76,-60.36752521373453
77,-61.04917183589085
2,1, 1, 1, 0,24, 0.00,60.00,Tuesday
7,-7.0
47,0.0
74,-0.6628370702425528
75,-0.564645075380275
76,-46.84023665133905
77,-49.17979945801629
3,1, 1, 1, 0,Tuesday
51,0.2586823729828891,-1.186902486603347, 3,60,4.062076250467287,11,30
52,2.8728644574592598,-7.51535725318217,24,60,43.54411928360483,11,30
53,0.9594432192409329,0.2009724055016804,16,45,1.827809921697132,11,45
54,8.747920017930822,1.493244100825115, 6,60,14.162956628576755,20,60
55,0.14179873453286108,-1.1785108069866955, 3,60,2.942107726476236,11,30
56,1.1235232068592443,-7.42133789300708,24,60,31.269946951871956, 9,30
57,0.8764725132342068,0.27594545382831955,17,30,1.672811465309478, 9,45
58,10.486594968797215,1.4932449232376948, 6,60,19.401296632482976,20,60
59,-0.01591499985117199,-1.1785107146125367, 3,60,1.8986821029984223,11,60
60,-1.2418398104712647,-7.42133789300708,24,60,7.714526259011289,11,30
61,0.7835708371607785,0.230020932153194,12,60,1.144706302978195,11,15
62,10.42169877626774,1.5359680390067943, 6,60,19.401296632482976,20,60
63,0.0122851697323809,-1.1869023796199557, 3,60,1.9399638919550706,11,60
64,-0.8719717204616834,-7.51535725318217,24,60,9.334844945003964,17,30
65,0.821108149348517,0.20097252450194143,16,45,1.1447045398756338,11,15
66,8.763283262779716,1.5359689952812966, 6,60,14.35440098008998,13,60
67,0.07394222295671833,-0.5996329566787695, 8,15,0.658931856371447,17,30
68,0.07395579226402342,-0.5996329566787695, 8,30,0.658931856371447,17,45
69,0.864958506155337,0.25383267658352745,18,30,1.25712827379164,24,60
70,0.056847882005714247,-1.0375273425899479, 3,60,2.0070732898298409,11,30
71,-1.0185702776716497,-10.540153141113028, 1,60,22.24190369572761,11,30
72,0.7206544338706399,0.17446677037621415,16,60,1.035531311450518,10,45
73,11.8839122443352,1.2265405956597669, 6,60,22.15544489168398,20,60
8,0.0,0, 1,15,0, 1,15
9,3.,3, 1,15,3, 1,15
2,2, 1, 2, 0, 1, 0.00,60.00,Wednesday
7,-8.25
47,0.0
74,-0.9598905401314462
75,-0.7860659884687578
76,-113.44044159828377
77,-97.11422234988717
2,2, 1, 2, 0, 2, 0.00,60.00,Wednesday
7,-9.625
47,0.0
74,-1.3919198286964936
75,-1.2093082878810436
76,-123.40897356660484
77,-131.0427723449167
2,2, 1, 2, 0, 3, 0.00,60.00,Wednesday
7,-10.0
47,0.0
74,-1.6470448105961433
75,-1.5122044627355298
76,-61.515691912018727
77,-69.92762531690951
2,2, 1, 2, 0, 4, 0.00,60.00,Wednesday
7,-10.625
47,0.0
74,-1.8162759794301522
75,-1.686491932267761
76,-55.37866769231567
77,-53.48042592190119
2,2, 1, 2, 0, 5, 0.00,60.00,Wednesday
7,-11.625
47,0.0
74,-2.049282893885483
75,-1.89963910343415
76,-78.65290159540132
77,-75.49774550949391
2,2, 1, 2, 0, 6, 0.00,60.00,Wednesday
7,-13.875
47,0.0
74,-2.4567390123280767
75,-2.245042053349292
76,-142.37177174446789
77,-132.482861728622
2,2, 1, 2, 0, 7, 0.00,60.00,Wednesday
7,-14.375
47,0.0
74,-2.7894390319850439
75,-2.632658050855012
76,-76.83448527123119
77,-91.23910662380679
2,2, 1, 2, 0, 8, 0.00,60.00,Wednesday
7,-13.375
47,0.0
74,-2.8137058050162198
75,-2.7584466406283738
76,21.945945718089925
77,1.5985002792043766
2,2, 1, 2, 0, 9, 0.00,60.00,Wednesday
7,-11.75
47,0.0
74,-2.325198988748881
75,-2.437887356718843
76,118.7171899295555
77,128.52874298156426
2,2, 1, 2, 0,10, 0.00,60.00,Wednesday
7,-8.5
47,0.0
74,-2.3823437342622895
75,-2.3362823332581357
76,-15.852348474639165
77,-16.695176236995569
2,2, 1, 2, 0,11, 0.00,60.00,Wednesday
7,-6.375
47,0.0
74,-1.8911983436676643
75,-2.1769733565892599
76,177.99080010975193
77,133.09179490392217
2,2, 1, 2, 0,12, 0.00,60.00,Wednesday
7,-6.0
47,0.0
74,-0.791157396014437
75,-1.1711437613153364
76,395.6294350608296
77,427.3355342546491
2,2, 1, 2, 0,13, 0.00,60.00,Wednesday
7,-5.375
47,0.0
74,-0.95419567516814
75,-0.7195076722677349
76,-87.4583806477138
77,-39.65801130546242
2,2, 1, 2, 0,14, 0.00,60.00,Wednesday
7,-5.0
47,0.0
74,-1.1295538525964586
75,-1.1329446393500895
76,47.57481263158415
77,-44.58873374394466
2,2, 1, 2, 0,15, 0.00,60.00,Wednesday
7,-5.625
47,0.0
74,-0.41804556312452326
75,-0.4025525258724742
76,162.94579533133868
77,297.261552438841
2,2, 1, 2, 0,16, 0.00,60.00,Wednesday
7,-6.625
47,0.0
74,-1.4321949960946637
75,-0.8788097534619936
76,-424.35833444220295
77,-387.5920724477315
2,2, 1, 2, 0,17, 0.00,60.00,Wednesday
7,-7.625
47,0.0
74,-1.8355090153071064
75,-1.6232919702356515
76,-174.24417548218598
77,-183.6680828269337
2,2, 1, 2, 0,18, 0.00,60.00,Wednesday
7,-8.0
47,0.0
74,-2.205918511083327
75,-2.0835932869590629
76,-79.78393475467722
77,-101.83197050532795
2,2, 1, 2, 0,19, 0.00,60.00,Wednesday
7,-8.625
47,0.0
74,-2.3866068807855438
75,-2.275322583599844
76,-57.1719136371891
77,-54.72766936518967
2,2, 1, 2, 0,20, 0.00,60.00,Wednesday
7,-10.25
47,0.0
74,-2.6407116921857449
75,-2.4979808672038716
76,-85.55413809305131
77,-81.17837745458343
2,2, 1, 2, 0,21, 0.00,60.00,Wednesday
7,-11.0
47,0.0
74,-2.8984339748204475
75,-2.7632934827099104
76,-74.71398847569918
77,-77.55252895468148
2,2, 1, 2, 0,22, 0.00,60.00,Wednesday
7,-11.0
47,0.0
74,-3.118092874478704
75,-2.9881796077515476
76,-65.6039027584435
77,-67.05757311384453
2,2, 1, 2, 0,23, 0.00,60.00,Wednesday
7,-11.625
47,0.0
74,-3.324827739393227
75,-3.1931221313197004
76,-65.70231936060159
77,-64.77361335031103
2,2, 1, 2, 0,24, 0.00,60.00,Wednesday
7,-12.0
47,0.0
74,-3.529796177822436
75,-3.4014854492494566
76,-62.14448812362819
77,-63.475934629258649
3,2, 1, 2, 0,Wednesday
51,-2.1861342037263129,-4.190280690322422,24,60,2.0343414059989328,15,30
52,-4.332474612175612,-16.06480267890344, 6,60,35.50431168774863,15,30
53,1.152903120338488,0.5149673092611603,17,45,1.7514209530291994,15,15
54,5.980726356648563,0.9428164497467338, 1,60,11.933897851734285,20,60
55,-2.4134288160159755,-4.190414632572636,24,60,-0.19473549579114253,15,30
56,-7.758615885047486,-16.06480267984139, 6,60,8.67004929171964,12,30
57,1.0837856687377479,0.37347998772895488, 9,15,1.3299095494367717, 7,15
58,6.1108001481511,0.9924171797440432, 1,60,15.068923798583615,20,60
59,-2.4832638758316656,-4.1920251334941629,24,60,-0.19473549576184119,15,30
60,-8.712302227235748,-16.098785859471396, 6,60,3.298648786453011,12,30
61,1.0905588195559759,0.4016588462189246,13,45,1.3308938339724699, 7,15
62,5.962705684535661,0.9924171797440432, 1,60,15.068923798583615,20,60
63,-2.381676070573944,-4.191890312067744,24,60,1.4876481902321979,15,30
64,-7.239916705164377,-16.09878581289547, 6,60,26.225666355934327,15,30
65,1.10139106866083,0.5022130719361087,17,30,1.5879281892179056,15,45
66,5.748204406218366,0.9428164497467338, 1,60,11.93389785173108,20,60
67,-1.551413509372073,-2.694591769251208,24,60,-0.09432948858658644, 1,15
68,-1.5239145095436638,-2.6458362252448048,24,60,-0.05468778572390679, 1,15
69,1.1711316910858166,0.2596847185066686,12,15,1.5586741347221316, 7,45
70,-2.1676467097999119,-3.803032476720117,24,60,0.16592725735322434,15,30
71,-8.84434929558325,-18.77888139292245, 6,60,17.288987421180577,12,30
72,0.9697402446711245,0.1658666048067728, 9,45,1.3157885540289019,16,45
73,6.930738374490897,0.5029409963295884,10,60,17.14805286367103,20,60
8,0.0,0, 1,15,0, 1,15
9,4.,4, 1,15,4, 1,15
2,3, 1, 3, 0, 1, 0.00,60.00,Thursday
7,-12.625
47,0.0
74,-3.769207368535924
75,-3.621502666597938
76,-80.16399697922549
77,-76.64630458727317
2,3, 1, 3, 0, 2, 0.00,60.00,Thursday
7,-13.125
47,0.0
74,-4.003428181241885
75,-3.8667495309471677
76,-67.98647863263506
77,-71.19570372257843
2,3, 1, 3, 0, 3, 0.00,60.00,Thursday
7,-13.45
47,0.0
74,-4.215271800348672
75,-4.077636080404503
76,-67.34947269420033
77,-66.56491413156081
2,3, 1, 3, 0, 4, 0.00,60.00,Thursday
7,-13.85
47,0.0
74,-4.43426285511481
75,-4.2951589936625
76,-68.86468131084158
77,-68.81241254703444
2,3, 1, 3, 0, 5, 0.00,60.00,Thursday
7,-14.0
47,0.0
74,-4.652659544725917
75,-4.513467412153156
76,-68.29931951820982
77,-68.34328498459537
2,3, 1, 3, 0, 6, 0.00,60.00,Thursday
7,-14.0
47,0.0
74,-4.86587954543833
75,-4.72833940477906
76,-66.15034462700484
77,-66.65665131394133
2,3, 1, 3, 0, 7, 0.00,60.00,Thursday
7,-14.0
47,0.0
74,-5.115467288366658
75,-4.959450882074748
76,-83.73376706856843
77,-80.15421370855438
2,3, 1, 3, 0, 8, 0.00,60.00,Thursday
7,-15.875
47,0.0
74,-5.015409047444463
75,-5.066957222444568
76,85.06213281364029
77,44.453517457334317
2,3, 1, 3, 0, 9, 0.00,60.00,Thursday
7,-14.5
47,0.0
74,-3.7000867957309366
75,-4.165886473606994
76,532.1348531650758
77,505.3808056421599
2,3, 1, 3, 0,10, 0.00,60.00,Thursday
7,-11.75
47,0.0
74,-3.132134330131295
75,-3.001347813501235
76,95.19591958960236
77,172.76679122530084
2,3, 1, 3, 0,11, 0.00,60.00,Thursday
7,-9.75
47,0.0
74,-3.2718322336219116
75,-3.135270862253028
76,-40.775388497489789
77,-70.57421071027913
2,3, 1, 3, 0,12, 0.00,60.00,Thursday
7,-8.375
47,0.0
74,-2.89734882098967
75,-2.9726013089105915
76,122.78913326427966
77,112.23612918134117
2,3, 1, 3, 0,13, 0.00,60.00,Thursday
7,-7.375
47,0.0
74,-2.10341851643826
75,-2.2869469163896589
76,287.05958078312599
77,274.3309512209246
2,3, 1, 3, 0,14, 0.00,60.00,Thursday
7,-7.0625
47,0.0
74,-1.5743127891722695
75,-1.5628247177094204
76,172.71259072035969
77,180.58866032853954
2,3, 1, 3, 0,15, 0.00,60.00,Thursday
7,-7.5375
47,0.0
74,-1.189152888725229
75,-1.0163823257824989
76,130.20582307296619
77,150.0296858518489
2,3, 1, 3, 0,16, 0.00,60.00,Thursday
7,-8.55
47,0.0
74,-1.4373658691930638
75,-0.9961100984743587
76,-162.58691268078048
77,-111.59377108437221
2,3, 1, 3, 0,17, 0.00,60.00,Thursday
7,-9.0
47,0.0
74,-2.6597356093011146
75,-2.05045534275021
76,-508.06155581834607
77,-509.5617013977892
2,3, 1, 3, 0,18, 0.00,60.00,Thursday
7,-9.0
47,0.0
74,-3.302081270315258
75,-3.1332832266379504
76,-136.64159561903484
77,-187.63504067970929
2,3, 1, 3, 0,19, 0.00,60.00,Thursday
7,-9.0
47,0.0
74,-3.487572847423069
75,-3.3791197083613957
76,-54.946829073269018
77,-54.5217621751204
2,3, 1, 3, 0,20, 0.00,60.00,Thursday
7,-9.0
47,0.0
74,-3.62638972572367
75,-3.530147838873068
76,-41.84467145784219
77,-43.24874130440679
2,3, 1, 3, 0,21, 0.00,60.00,Thursday
7,-8.375
47,0.0
74,-3.672422863704497
75,-3.6160405538572428
76,-8.36754307696452
77,-13.644825363430247
2,3, 1, 3, 0,22, 0.00,60.00,Thursday
7,-8.625
47,0.0
74,-3.7956322501456007
75,-3.6894989071381039
76,-52.73198203609543
77,-42.82273016902466
2,3, 1, 3, 0,23, 0.00,60.00,Thursday
7,-9.0
47,0.0
74,-3.974272723403449
75,-3.873809104293703
76,-50.39205645726878
77,-54.549158740796958
2,3, 1, 3, 0,24, 0.00,60.00,Thursday
7,-9.0
47,0.0
74,-4.117022980156642
75,-4.019964419598124
76,-44.441498317866777
77,-44.29658581016058
3,3, 1, 3, 0,Thursday
51,-3.1313024424355286,-6.01331957779353, 8,15,1.6117595171361985,15,30
52,2.1140790485471467,-16.138077495714126, 8,15,42.91701939093093,15,30
53,1.285016192205758,0.6663592769664233,17,45,1.8495632929521627,13,45
54,7.0658504020166,4.0032763494022529, 7,60,11.113393939463889,21,60
55,-3.6475085801270237,-6.013319577793528, 8,15,-1.0704073527719409, 9,60
56,-5.688330074956583,-16.138077495714126, 8,15,31.740851699995909, 9,60
57,1.1086503217323268,0.32343454768770726,15,15,1.80981151198122, 9,45
58,6.742697638236984,1.569519831830027,16,60,11.238770653409113, 4,60
59,-3.921451073228869,-6.008651048082498, 8,15,-1.3462414664724539,15,30
60,-9.570433974145736,-16.845734275578339, 8,60,1.385476860052063,13,60
61,1.0439786618397458,0.32343094827311105,15,15,1.2965867097755278,17,30
62,6.498532579702396,1.5695198318279693,16,60,11.238770653409113, 4,60