Program Version,EnergyPlus, Version 9.6.0-f420c06a69, YMD=2022.03.09 06:09
1,5,Environment Title[],Latitude[deg],Longitude[deg],Time Zone[],Elevation[m]
2,8,Day of Simulation[],Month[],Day of Month[],DST Indicator[1=yes 0=no],Hour[],StartMinute[],EndMinute[],DayType
3,5,Cumulative Day of Simulation[],Month[],Day of Month[],DST Indicator[1=yes 0=no],DayType  ! When Daily Report Variables Requested
4,2,Cumulative Days of Simulation[],Month[]  ! When Monthly Report Variables Requested
5,1,Cumulative Days of Simulation[] ! When Run Period Report Variables Requested
6,1,Calendar Year of Simulation[] ! When Annual Report Variables Requested
7,1,Environment,Site Outdoor Air Drybulb Temperature [C] !Hourly
8,1,Environment,Site Total Sky Cover [] !Hourly
9,1,Environment,Site Opaque Sky Cover [] !Hourly
10,7,Environment,Site Daylight Saving Time Status [] !Daily [Value,Min,Hour,Minute,Max,Hour,Minute]
11,7,Environment,Site Day Type Index [] !Daily [Value,Min,Hour,Minute,Max,Hour,Minute]
49,1,ZONE ONE,Zone Total Internal Latent Gain Energy [J] !Hourly
50,9,TEST 352A,Other Equipment Total Heating Energy [J] !Monthly [Value,Min,Day,Hour,Minute,Max,Day,Hour,Minute]
51,9,TEST 352 MINUS,Other Equipment Total Heating Energy [J] !Monthly [Value,Min,Day,Hour,Minute,Max,Day,Hour,Minute]
52,9,ZONE ONE,Zone Other Equipment Total Heating Energy [J] !Monthly [Value,Min,Day,Hour,Minute,Max,Day,Hour,Minute]
53,1,ZONE ONE,Zone Mean Radiant Temperature [C] !Hourly
54,7,ZN001:WALL001,Surface Inside Face Temperature [C] !Daily [Value,Min,Hour,Minute,Max,Hour,Minute]
55,7,ZN001:WALL001,Surface Outside Face Temperature [C] !Daily [Value,Min,Hour,Minute,Max,Hour,Minute]
56,7,ZN001:WALL001,Surface Inside Face Convection Heat Transfer Coefficient [W/m2-K] !Daily [Value,Min,Hour,Minute,Max,Hour,Minute]
57,7,ZN001:WALL001,Surface Outside Face Convection Heat Transfer Coefficient [W/m2-K] !Daily [Value,Min,Hour,Minute,Max,Hour,Minute]
58,7,ZN001:WALL002,Surface Inside Face Temperature [C] !Daily [Value,Min,Hour,Minute,Max,Hour,Minute]
59,7,ZN001:WALL002,Surface Outside Face Temperature [C] !Daily [Value,Min,Hour,Minute,Max,Hour,Minute]
60,7,ZN001:WALL002,Surface Inside Face Convection Heat Transfer Coefficient [W/m2-K] !Daily [Value,Min,Hour,Minute,Max,Hour,Minute]
61,7,ZN001:WALL002,Surface Outside Face Convection Heat Transfer Coefficient [W/m2-K] !Daily [Value,Min,Hour,Minute,Max,Hour,Minute]
62,7,ZN001:WALL003,Surface Inside Face Temperature [C] !Daily [Value,Min,Hour,Minute,Max,Hour,Minute]
63,7,ZN001:WALL003,Surface Outside Face Temperature [C] !Daily [Value,Min,Hour,Minute,Max,Hour,Minute]
64,7,ZN001:WALL003,Surface Inside Face Convection Heat Transfer Coefficient [W/m2-K] !Daily [Value,Min,Hour,Minute,Max,Hour,Minute]
65,7,ZN001:WALL003,Surface Outside Face Convection Heat Transfer Coefficient [W/m2-K] !Daily [Value,Min,Hour,Minute,Max,Hour,Minute]
66,7,ZN001:WALL004,Surface Inside Face Temperature [C] !Daily [Value,Min,Hour,Minute,Max,Hour,Minute]
67,7,ZN001:WALL004,Surface Outside Face Temperature [C] !Daily [Value,Min,Hour,Minute,Max,Hour,Minute]
68,7,ZN001:WALL004,Surface Inside Face Convection Heat Transfer Coefficient [W/m2-K] !Daily [Value,Min,Hour,Minute,Max,Hour,Minute]
69,7,ZN001:WALL004,Surface Outside Face Convection Heat Transfer Coefficient [W/m2-K] !Daily [Value,Min,Hour,Minute,Max,Hour,Minute]
70,7,ZN001:FLR001,Surface Inside Face Temperature [C] !Daily [Value,Min,Hour,Minute,Max,Hour,Minute]
71,7,ZN001:FLR001,Surface Outside Face Temperature [C] !Daily [Value,Min,Hour,Minute,Max,Hour,Minute]
72,7,ZN001:FLR001,Surface Inside Face Convection Heat Transfer Coefficient [W/m2-K] !Daily [Value,Min,Hour,Minute,Max,Hour,Minute]
73,7,ZN001:ROOF001,Surface Inside Face Temperature [C] !Daily [Value,Min,Hour,Minute,Max,Hour,Minute]
74,7,ZN001:ROOF001,Surface Outside Face Temperature [C] !Daily [Value,Min,Hour,Minute,Max,Hour,Minute]
75,7,ZN001:ROOF001,Surface Inside Face Convection Heat Transfer Coefficient [W/m2-K] !Daily [Value,Min,Hour,Minute,Max,Hour,Minute]
76,7,ZN001:ROOF001,Surface Outside Face Convection Heat Transfer Coefficient [W/m2-K] !Daily [Value,Min,Hour,Minute,Max,Hour,Minute]
77,1,ZONE ONE,Zone Mean Air Temperature [C] !Hourly
78,1,ZONE ONE,Zone Air Heat Balance Surface Convection Rate [W] !Hourly
79,1,ZONE ONE,Zone Air Heat Balance Air Energy Storage Rate [W] !Hourly
End of Data Dictionary
1,DENVER CENTENNIAL  GOLDEN   N ANN HTG 99% CONDNS DB,  39.74,-105.18,  -7.00,1829.00
2,1,12,21, 0, 1, 0.00,60.00,WinterDesignDay
7,-15.5
8,9.375
9,8.75
49,0.0
53,-18.20864537828613
77,-18.21135382055016
78,-0.02693455162748304
79,-0.026988224920447938
2,1,12,21, 0, 2, 0.00,60.00,WinterDesignDay
7,-15.5
8,9.625
9,8.625
49,0.0
53,-18.20872872127243
77,-18.21143504005103
78,-0.02650914659034198
79,-0.026561973364605827
2,1,12,21, 0, 3, 0.00,60.00,WinterDesignDay
7,-15.5
8,9.375
9,8.375
49,0.0
53,-18.208810746704437
77,-18.211514976728836
78,-0.026090450725469783
79,-0.02614244428793779
2,1,12,21, 0, 4, 0.00,60.00,WinterDesignDay
7,-15.5
8,9.625
9,9.25
49,0.0
53,-18.20889147540347
77,-18.21159365081663
78,-0.025678358575772275
79,-0.025729532018978506
2,1,12,21, 0, 5, 0.00,60.00,WinterDesignDay
7,-15.5
8,10.0
9,10.0
49,0.0
53,-18.208970927862115
77,-18.211671082229408
78,-0.025272766323892526
79,-0.025323132556189384
2,1,12,21, 0, 6, 0.00,60.00,WinterDesignDay
7,-15.5
8,10.0
9,10.0
49,0.0
53,-18.209049124249322
77,-18.21174729056902
78,-0.024873571772281
79,-0.02492314347433195
2,1,12,21, 0, 7, 0.00,60.00,WinterDesignDay
7,-15.5
8,10.0
9,10.0
49,0.0
53,-18.209126084415573
77,-18.211822295129068
78,-0.02448067430831813
79,-0.024529463983054934
2,1,12,21, 0, 8, 0.00,60.00,WinterDesignDay
7,-15.5
8,10.0
9,10.0
49,0.0
53,-18.20920182789787
77,-18.21189611489972
78,-0.024093974903470983
79,-0.024141994852885276
2,1,12,21, 0, 9, 0.00,60.00,WinterDesignDay
7,-15.5
8,9.375
9,8.75
49,0.0
53,-18.209276373924702
77,-18.211968768572447
78,-0.0237133760665027
79,-0.023760638394591117
2,1,12,21, 0,10, 0.00,60.00,WinterDesignDay
7,-15.5
8,9.625
9,9.25
49,0.0
53,-18.20934974142089
77,-18.212040274544684
78,-0.023338781836533595
79,-0.02338529846688552
2,1,12,21, 0,11, 0.00,60.00,WinterDesignDay
7,-15.5
8,10.0
9,10.0
49,0.0
53,-18.209421949012352
77,-18.212110650924444
78,-0.022970097736221717
79,-0.023015880406470953
2,1,12,21, 0,12, 0.00,60.00,WinterDesignDay
7,-15.5
8,8.75
9,8.75
49,0.0
53,-18.20949301503088
77,-18.212179915534794
78,-0.022607230783939336
79,-0.022652291042711402
2,1,12,21, 0,13, 0.00,60.00,WinterDesignDay
7,-15.5
8,9.25
9,9.25
49,0.0
53,-18.20956295751872
77,-18.21224808591835
78,-0.022250089446661292
79,-0.022294438654798555
2,1,12,21, 0,14, 0.00,60.00,WinterDesignDay
7,-15.5
8,10.0
9,10.0
49,0.0
53,-18.209631794233147
77,-18.21231517934165
78,-0.02189858360878505
79,-0.021942232962507687
2,1,12,21, 0,15, 0.00,60.00,WinterDesignDay
7,-15.5
8,10.0
9,10.0
49,0.0
53,-18.209699542650984
77,-18.212381212799478
78,-0.02155262457798557
79,-0.021595585104606824
2,1,12,21, 0,16, 0.00,60.00,WinterDesignDay
7,-15.5
8,10.0
9,10.0
49,0.0
53,-18.20976621997302
77,-18.21244620301911
78,-0.0212121250456212
79,-0.02125440756787921
2,1,12,21, 0,17, 0.00,60.00,WinterDesignDay
7,-15.5
8,10.0
9,10.0
49,0.0
53,-18.20983184312832
77,-18.21251016646446
78,-0.020876999072508617
79,-0.020918614279406382
2,1,12,21, 0,18, 0.00,60.00,WinterDesignDay
7,-15.5
8,10.0
9,10.0
49,0.0
53,-18.209896428778585
77,-18.212573119340302
78,-0.020547162055558843
79,-0.02058812044256069
2,1,12,21, 0,19, 0.00,60.00,WinterDesignDay
7,-15.5
8,10.0
9,10.0
49,0.0
53,-18.20995999332228
77,-18.212635077596218
78,-0.02022253072183755
79,-0.020262842643043635
2,1,12,21, 0,20, 0.00,60.00,WinterDesignDay
7,-15.5
8,10.0
9,10.0
49,0.0
53,-18.21002255289889
77,-18.212696056930668
78,-0.019903023098202688
79,-0.01994269872902806
2,1,12,21, 0,21, 0.00,60.00,WinterDesignDay
7,-15.5
8,10.0
9,10.0
49,0.0
53,-18.210084123392896
77,-18.21275607279486
78,-0.019588558501619335
79,-0.019627607868575467
2,1,12,21, 0,22, 0.00,60.00,WinterDesignDay
7,-15.5
8,10.0
9,10.0
49,0.0
53,-18.210144720437903
77,-18.21281514039671
78,-0.01927905750991954
79,-0.01931749047830559
2,1,12,21, 0,23, 0.00,60.00,WinterDesignDay
7,-15.5
8,10.0
9,10.0
49,0.0
53,-18.210204359420516
77,-18.21287327470455
78,-0.01897444194872344
79,-0.01901226821772349
2,1,12,21, 0,24, 0.00,60.00,WinterDesignDay
7,-15.5
8,10.0
9,10.0
49,0.0
53,-18.21026305548427
77,-18.212930490450958
78,-0.018674634865961437
79,-0.01871186400083917
3,1,12,21, 0,WinterDesignDay
54,-18.14503745591747,-18.145757590298356,24,60,-18.14422169658082, 1,15
55,-17.4635473417154,-17.463575491452506,24,60,-17.463515454117562, 1,15
56,0.5323350994249654,0.5322044383507613, 1,15,0.5324505718144811,24,60
57,7.151445020273765,7.151444105740373,24,60,7.1514460562650575, 1,15
58,-18.14503745591747,-18.145757590298356,24,60,-18.14422169658082, 1,15
59,-17.4635473417154,-17.463575491452506,24,60,-17.463515454117562, 1,15
60,0.5323350994249654,0.5322044383507613, 1,15,0.5324505718144811,24,60
61,7.151445020273765,7.151444105740373,24,60,7.1514460562650575, 1,15
62,-18.14081310878113,-18.141533297832165,24,60,-18.139997287677097, 1,15
63,-17.417318742231785,-17.417346256823762,24,60,-17.41728757411679, 1,15
64,0.5432718403104548,0.5431465456771151, 1,15,0.5433825719469774,24,60
65,7.416426177953677,7.416425105689358,24,60,7.416427392620845, 1,15
66,-18.14081310878113,-18.141533297832165,24,60,-18.139997287677097, 1,15
67,-17.417318742231785,-17.417346256823762,24,60,-17.41728757411679, 1,15
68,0.5432718403104548,0.5431465456771151, 1,15,0.5433825719469774,24,60
69,7.416426177953677,7.416425105689358,24,60,7.416427392620845, 1,15
70,-18.21612362378681,-18.21700045449785,24,60,-18.21513032169014, 1,15
71,-18.216103896431235,-18.21698422811392,24,60,-18.215106628362435, 1,15
72,0.11993953386969179,0.11861978633773645, 1,15,0.12108790225506816,24,60
73,-18.282770431623323,-18.283536572608018,24,60,-18.28190255425872, 1,15
74,-20.30578027078142,-20.305791706819804,24,60,-20.30576731613179, 1,15
75,0.6281834676311572,0.6281748962828948, 1,15,0.6281908452107945,24,60
76,8.618881115572554,8.61888081536602,24,60,8.618881455644573, 1,15
10,0.0,0, 1,15,0, 1,15
11,10.,10, 1,15,10, 1,15
4,1,12
50,30412800.0,316800.0,21, 1,15,316800.0,21, 1,15
51,-30412800.0,-316800.0,21, 1,15,-316800.0,21, 1,15
52,0.0,0.0,21, 1,15,0.0,21, 1,15
1,DENVER CENTENNIAL  GOLDEN   N ANN CLG 1% CONDNS DB=>MWB,  39.74,-105.18,  -7.00,1829.00
2,1, 7,21, 0, 1, 0.00,60.00,SummerDesignDay
7,18.966
8,9.375
9,8.75
49,0.0
53,28.93733843510645
77,29.078607531641463
78,-80.270371994937
79,-80.21468963873423
2,1, 7,21, 0, 2, 0.00,60.00,SummerDesignDay
7,18.244
8,9.625
9,8.625
49,0.0
53,28.651440680991044
77,28.792642010485444
78,-78.19921730558278
79,-78.63671117051432
2,1, 7,21, 0, 3, 0.00,60.00,SummerDesignDay
7,17.731
8,9.375
9,8.375
49,0.0
53,28.373798702983485
77,28.51480031501085
78,-76.53412667638152
79,-76.74055282190868
2,1, 7,21, 0, 4, 0.00,60.00,SummerDesignDay
7,17.275000000000002
8,9.625
9,9.25
49,0.0
53,28.09741274069054
77,28.239723963213983
78,-76.95920754067795
79,-76.85998101091852
2,1, 7,21, 0, 5, 0.00,60.00,SummerDesignDay
7,16.913999999999998
8,10.0
9,10.0
49,0.0
53,27.824289181507442
77,27.965695005605937
78,-75.45583832802511
79,-75.77564904920276
2,1, 7,21, 0, 6, 0.00,60.00,SummerDesignDay
7,16.990000000000002
8,10.0
9,10.0
49,0.0
53,27.884422707483868
77,27.869083500476542
78,51.67267352279268
79,27.55663830623221
2,1, 7,21, 0, 7, 0.00,60.00,SummerDesignDay
7,17.769
8,10.0
9,10.0
49,0.0
53,28.293311055443517
77,28.19646835499545
78,97.95419158850832
79,101.6165940541175
2,1, 7,21, 0, 8, 0.00,60.00,SummerDesignDay
7,19.783
8,10.0
9,10.0
49,0.0
53,28.660173838912932
77,28.553245131123376
78,109.11437111791281
79,104.62109868444439
2,1, 7,21, 0, 9, 0.00,60.00,SummerDesignDay
7,22.557
8,9.375
9,8.75
49,0.0
53,29.137344914642355
77,29.008742106418058
78,141.1984833350959
79,138.35007908471974
2,1, 7,21, 0,10, 0.00,60.00,SummerDesignDay
7,25.255000000000003
8,9.625
9,9.25
49,0.0
53,29.63957900842792
77,29.51197759362869
78,133.7472706948919
79,135.9556525113971
2,1, 7,21, 0,11, 0.00,60.00,SummerDesignDay
7,27.649
8,10.0
9,10.0
49,0.0
53,30.073676581753364
77,29.96118794179616
78,114.47036234406339
79,117.11000552593882
2,1, 7,21, 0,12, 0.00,60.00,SummerDesignDay
7,29.454
8,8.75
9,8.75
49,0.0
53,30.406881643705393
77,30.32288647930954
78,84.50977087055166
79,88.61527182943418
2,1, 7,21, 0,13, 0.00,60.00,SummerDesignDay
7,30.784
8,9.25
9,9.25
49,0.0
53,30.759937847136968
77,30.645376401900297
78,107.59124139661839
79,100.62321847208723
2,1, 7,21, 0,14, 0.00,60.00,SummerDesignDay
7,31.715
8,10.0
9,10.0
49,0.0
53,31.167304714257458
77,31.069133828181368
78,115.30206911138546
79,117.79607565910305
2,1, 7,21, 0,15, 0.00,60.00,SummerDesignDay
7,32.0
8,10.0
9,10.0
49,0.0
53,31.46915491506991
77,31.43270298874781
78,81.76283029147807
79,86.91335719011067
2,1, 7,21, 0,16, 0.00,60.00,SummerDesignDay
7,31.43
8,10.0
9,10.0
49,0.0
53,31.597090985010603
77,31.645720075872383
78,33.80632033904688
79,40.34050196908517
2,1, 7,21, 0,17, 0.00,60.00,SummerDesignDay
7,30.328
8,10.0
9,10.0
49,0.0
53,31.566221724901325
77,31.69801882792385
78,0.3229716043466051
79,2.922066031524367
2,1, 7,21, 0,18, 0.00,60.00,SummerDesignDay
7,28.922
8,10.0
9,10.0
49,0.0
53,31.42715086958452
77,31.625257568740658
78,-52.46889363982568
79,-41.92580559978329
2,1, 7,21, 0,19, 0.00,60.00,SummerDesignDay
7,26.927
8,10.0
9,10.0
49,0.0
53,30.919250285933277
77,31.213699276999456
78,-187.20454782631634
79,-166.83029412592933
2,1, 7,21, 0,20, 0.00,60.00,SummerDesignDay
7,25.027
8,10.0
9,10.0
49,0.0
53,30.355967703580955
77,30.52214761366554
78,-138.1821307877607
79,-161.20568503664032
2,1, 7,21, 0,21, 0.00,60.00,SummerDesignDay
7,23.544999999999998
8,10.0
9,10.0
49,0.0
53,30.062035433327416
77,30.185397702613773
78,-75.09659344238125
79,-75.0330861570279
2,1, 7,21, 0,22, 0.00,60.00,SummerDesignDay
7,22.177
8,10.0
9,10.0
49,0.0
53,29.790208342088725
77,29.918431961821764
78,-75.4006446206458
79,-74.89196091695692
2,1, 7,21, 0,23, 0.00,60.00,SummerDesignDay
7,20.999000000000002
8,10.0
9,10.0
49,0.0
53,29.51315916903576
77,29.64477859624185
78,-75.74915954995836
79,-75.90683088878242
2,1, 7,21, 0,24, 0.00,60.00,SummerDesignDay
7,19.935000000000002
8,10.0
9,10.0
49,0.0
53,29.229786245788038
77,29.36726054139766
78,-78.75929291509318
79,-78.26939145820525
3,1, 7,21, 0,SummerDesignDay
54,29.657469205297346,27.1031482237491, 6,15,32.13041994141327,15,30
55,28.154411028341496,15.43595488037662, 5,60,49.0200409726373,13,45
56,1.069637592911993,0.22820553642133307,17,30,1.333141499977597,13,45
57,9.789675999433843,9.64856927229296,10,15,10.219994633751245, 6,60
58,29.786822370360866,27.11426329554783, 5,60,31.7285791273551,16,30
59,30.43637984026446,15.589301285290007, 5,60,53.375055423313, 9,30
60,1.0705736125297232,0.32103841124878946,17,15,1.4653694153731678, 9,30
61,11.647855311012387,11.426186741540567, 6,60,11.99386587408576,19,45
62,29.52907625991303,27.114247302664793, 5,60,31.728579127355086,16,30
63,25.76207679844448,15.589024974791084, 5,60,35.85337230592743,14,60
64,0.8660915588917075,0.1,19,15,1.190337707352824, 6,15
65,11.658904740375837,11.47396268151557,19,15,12.222869167418835, 6,30
66,29.77015901210927,27.110290330494152, 6,15,33.17914009351609,16,60
67,30.282246185759202,15.588754852406208, 5,60,61.658284033758726,16,60
68,1.0793746460955733,0.25207562676610534,10,30,1.4969509474969473,17,15
69,11.65507542332576,11.426584823928662,14,45,12.183437957355958, 6,60
70,29.738212853593865,28.46960140185364, 7,45,31.012309174612,19,15
71,29.738194019442503,28.46960140185364, 7,60,31.012309174612,19,30
72,0.9731742493506319,0.14407469354627336, 8,45,1.4079584920489614, 6,15
73,29.816987455750436,27.512815975840887, 6,15,31.960526777542,16,15
74,32.55048088581561,13.078280653529768, 5,60,61.48143628475624,13,45
75,0.7936812447801334,0.26383089533553006, 7,60,1.1315912265004942,20,15
76,13.388257133771148,13.087110166933074, 8,60,13.946429449430886, 6,60
10,0.0,0, 1,15,0, 1,15
11,9.,9, 1,15,9, 1,15
4,1, 7
50,30412800.0,316800.0,21, 1,15,316800.0,21, 1,15
51,-30412800.0,-316800.0,21, 1,15,-316800.0,21, 1,15
52,0.0,0.0,21, 1,15,0.0,21, 1,15
1,RUN PERIOD 1,  39.74,-105.18,  -7.00,1829.00
2,1, 1, 1, 0, 1, 0.00,60.00,Tuesday
7,-4.5
8,9.375
9,8.75
49,0.0
53,-0.6949252117693278
77,-0.6400018617821047
78,-6.0078525233507385
79,-8.213796406351833
2,1, 1, 1, 0, 2, 0.00,60.00,Tuesday
7,-3.0
8,9.625
9,8.625
49,0.0
53,-0.7002971177149409
77,-0.6632275740549468
78,-0.08301973807113594
79,-4.398376920021068
2,1, 1, 1, 0, 3, 0.00,60.00,Tuesday
7,-3.625
8,9.375
9,8.375
49,0.0
53,-0.8049480462641965
77,-0.7130236483512947
78,-44.94031415919692
79,-35.15682522997617
2,1, 1, 1, 0, 4, 0.00,60.00,Tuesday
7,-2.75
8,9.625
9,9.25
49,0.0
53,-0.8211628789929032
77,-0.8055730340997656
78,10.205648214511243
79,-3.196248916752851
2,1, 1, 1, 0, 5, 0.00,60.00,Tuesday
7,-2.0
8,10.0
9,10.0
49,0.0
53,-0.7527087440930258
77,-0.7424862174123368
78,12.1707193359354
79,16.879126021017704
2,1, 1, 1, 0, 6, 0.00,60.00,Tuesday
7,-1.375
8,10.0
9,10.0
49,0.0
53,-0.7774161602771176
77,-0.7384796575800563
78,-12.082759549155677
79,-8.199727471336985
2,1, 1, 1, 0, 7, 0.00,60.00,Tuesday
7,-1.0
8,10.0
9,10.0
49,0.0
53,-0.7726913947533176
77,-0.7674371668842224
78,5.260907211137743
79,-0.31896129610713286
2,1, 1, 1, 0, 8, 0.00,60.00,Tuesday
7,-1.0
8,10.0
9,10.0
49,0.0
53,-0.3578335971739886
77,-0.6006523143479566
78,172.92628076434244
79,125.3961805869264
2,1, 1, 1, 0, 9, 0.00,60.00,Tuesday
7,-0.375
8,9.375
9,8.75
49,0.0
53,0.49852685600183616
77,0.3046174682582109
78,301.2918303565103
79,348.9930584580244
2,1, 1, 1, 0,10, 0.00,60.00,Tuesday
7,1.25
8,9.625
9,9.25
49,0.0
53,0.44712229981244056
77,0.47432467986173454
78,31.515190202799786
79,-22.41431331734985
2,1, 1, 1, 0,11, 0.00,60.00,Tuesday
7,2.0
8,10.0
9,10.0
49,0.0
53,1.5237850798821782
77,1.3113366952617331
78,346.9879907530522
79,390.6325899039756
2,1, 1, 1, 0,12, 0.00,60.00,Tuesday
7,1.375
8,8.75
9,8.75
49,0.0
53,1.2634757262543572
77,1.5318021540897568
78,-113.35807202155003
79,-93.6088780518681
2,1, 1, 1, 0,13, 0.00,60.00,Tuesday
7,2.25
8,9.25
9,9.25
49,0.0
53,1.1618981276856266
77,1.2447356331598
78,-28.53063227225543
79,-47.35774289331887
2,1, 1, 1, 0,14, 0.00,60.00,Tuesday
7,2.375
8,10.0
9,10.0
49,0.0
53,1.0339448141853935
77,1.1628441403980485
78,-51.14057939630185
79,-39.51871061119971
2,1, 1, 1, 0,15, 0.00,60.00,Tuesday
7,1.375
8,10.0
9,10.0
49,0.0
53,0.7830534643650856
77,0.9408106232910013
78,-68.85305576904182
79,-72.15259787806966
2,1, 1, 1, 0,16, 0.00,60.00,Tuesday
7,1.0
8,10.0
9,10.0
49,0.0
53,0.7677760317687028
77,0.797386037686163
78,-9.145960256918897
79,-20.095204729616853
2,1, 1, 1, 0,17, 0.00,60.00,Tuesday
7,0.375
8,10.0
9,10.0
49,0.0
53,0.7198742312746559
77,0.8183162567396312
78,-33.29665528240628
79,-12.639440687401725
2,1, 1, 1, 0,18, 0.00,60.00,Tuesday
7,-0.625
8,10.0
9,10.0
49,0.0
53,0.46823047952356894
77,0.5795798158580024
78,-68.55838424511198
79,-78.5256021654981
2,1, 1, 1, 0,19, 0.00,60.00,Tuesday
7,-1.625
8,10.0
9,10.0
49,0.0
53,0.3142108121685714
77,0.3966638061538597
78,-48.606862545364066
79,-49.20497234845695
2,1, 1, 1, 0,20, 0.00,60.00,Tuesday
7,-3.25
8,10.0
9,10.0
49,0.0
53,0.12172217907283023
77,0.22439808173286768
78,-62.299396872761875
79,-59.324050062780245
2,1, 1, 1, 0,21, 0.00,60.00,Tuesday
7,-4.625
8,10.0
9,10.0
49,0.0
53,-0.08892574942306847
77,0.015915247313701537
78,-62.6889650706656
79,-63.86016162129035
2,1, 1, 1, 0,22, 0.00,60.00,Tuesday
7,-5.625
8,10.0
9,10.0
49,0.0
53,-0.2973437190248832
77,-0.1864788263731162
78,-63.802962091438154
79,-63.31024456075235
2,1, 1, 1, 0,23, 0.00,60.00,Tuesday
7,-6.625
8,10.0
9,10.0
49,0.0
53,-0.49868925090452254
77,-0.38827252422808667
78,-60.36752521373453
79,-61.04917183589085
2,1, 1, 1, 0,24, 0.00,60.00,Tuesday
7,-7.0
8,10.0
9,10.0
49,0.0
53,-0.6628370702425528
77,-0.564645075380275
78,-46.84023665133905
79,-49.17979945801629
3,1, 1, 1, 0,Tuesday
54,0.2586823729828891,-1.186902486603347, 3,60,4.062076250467287,11,30
55,2.8728644574592597,-7.51535725318217,24,60,43.54411928360483,11,30
56,0.9594432192409329,0.2009724055016804,16,45,1.827809921697132,11,45
57,8.747920017930822,1.493244100825115, 6,60,14.162956628576755,20,60
58,0.14179873453286107,-1.1785108069866954, 3,60,2.942107726476236,11,30
59,1.1235232068592442,-7.42133789300708,24,60,31.269946951871955, 9,30
60,0.8764725132342068,0.27594545382831953,17,30,1.672811465309478, 9,45
61,10.486594968797215,1.4932449232376948, 6,60,19.401296632482975,20,60
62,-0.01591499985117199,-1.1785107146125366, 3,60,1.8986821029984222,11,60
63,-1.2418398104712647,-7.42133789300708,24,60,7.714526259011289,11,30
64,0.7835708371607785,0.230020932153194,12,60,1.144706302978195,11,15
65,10.42169877626774,1.5359680390067942, 6,60,19.401296632482975,20,60
66,0.0122851697323809,-1.1869023796199556, 3,60,1.9399638919550706,11,60
67,-0.8719717204616834,-7.51535725318217,24,60,9.334844945003963,17,30
68,0.821108149348517,0.20097252450194142,16,45,1.1447045398756337,11,15
69,8.763283262779716,1.5359689952812965, 6,60,14.35440098008998,13,60
70,0.07394222295671833,-0.5996329566787695, 8,15,0.658931856371447,17,30
71,0.07395579226402342,-0.5996329566787695, 8,30,0.658931856371447,17,45
72,0.864958506155337,0.25383267658352743,18,30,1.25712827379164,24,60
73,0.056847882005714244,-1.0375273425899478, 3,60,2.0070732898298407,11,30
74,-1.0185702776716496,-10.540153141113027, 1,60,22.24190369572761,11,30
75,0.7206544338706399,0.17446677037621414,16,60,1.035531311450518,10,45
76,11.8839122443352,1.2265405956597668, 6,60,22.15544489168398,20,60
10,0.0,0, 1,15,0, 1,15
11,3.,3, 1,15,3, 1,15
2,2, 1, 2, 0, 1, 0.00,60.00,Wednesday
7,-8.25
8,10.0
9,10.0
49,0.0
53,-0.9598905401314461
77,-0.7860659884687577
78,-113.44044159828377
79,-97.11422234988717
2,2, 1, 2, 0, 2, 0.00,60.00,Wednesday
7,-9.625
8,8.75
9,8.75
49,0.0
53,-1.3919198286964936
77,-1.2093082878810435
78,-123.40897356660484
79,-131.0427723449167
2,2, 1, 2, 0, 3, 0.00,60.00,Wednesday
7,-10.0
8,9.25
9,9.25
49,0.0
53,-1.6470448105961433
77,-1.5122044627355298
78,-61.515691912018724
79,-69.92762531690951
2,2, 1, 2, 0, 4, 0.00,60.00,Wednesday
7,-10.625
8,10.0
9,10.0
49,0.0
53,-1.8162759794301522
77,-1.686491932267761
78,-55.37866769231567
79,-53.48042592190119
2,2, 1, 2, 0, 5, 0.00,60.00,Wednesday
7,-11.625
8,10.0
9,10.0
49,0.0
53,-2.049282893885483
77,-1.89963910343415
78,-78.65290159540132
79,-75.49774550949391
2,2, 1, 2, 0, 6, 0.00,60.00,Wednesday
7,-13.875
8,6.875
9,6.875
49,0.0
53,-2.4567390123280766
77,-2.245042053349292
78,-142.37177174446788
79,-132.482861728622
2,2, 1, 2, 0, 7, 0.00,60.00,Wednesday
7,-14.375
8,5.0
9,5.0
49,0.0
53,-2.7894390319850437
77,-2.632658050855012
78,-76.83448527123119
79,-91.23910662380679
2,2, 1, 2, 0, 8, 0.00,60.00,Wednesday
7,-13.375
8,5.625
9,5.0
49,0.0
53,-2.8137058050162196
77,-2.7584466406283736
78,21.945945718089924
79,1.5985002792043765
2,2, 1, 2, 0, 9, 0.00,60.00,Wednesday
7,-11.75
8,4.125
9,3.125
49,0.0
53,-2.325198988748881
77,-2.437887356718843
78,118.7171899295555
79,128.52874298156425
2,2, 1, 2, 0,10, 0.00,60.00,Wednesday
7,-8.5
8,2.375
9,1.375
49,0.0
53,-2.3823437342622893
77,-2.3362823332581355
78,-15.852348474639165
79,-16.695176236995568
2,2, 1, 2, 0,11, 0.00,60.00,Wednesday
7,-6.375
8,2.625
9,1.625
49,0.0
53,-1.8911983436676643
77,-2.1769733565892597
78,177.99080010975192
79,133.09179490392216
2,2, 1, 2, 0,12, 0.00,60.00,Wednesday
7,-6.0
8,4.25
9,3.25
49,0.0
53,-0.791157396014437
77,-1.1711437613153364
78,395.6294350608296
79,427.3355342546491
2,2, 1, 2, 0,13, 0.00,60.00,Wednesday
7,-5.375
8,7.5
9,6.5
49,0.0
53,-0.95419567516814
77,-0.7195076722677349
78,-87.4583806477138
79,-39.65801130546242
2,2, 1, 2, 0,14, 0.00,60.00,Wednesday
7,-5.0
8,9.625
9,9.25
49,0.0
53,-1.1295538525964586
77,-1.1329446393500895
78,47.57481263158415
79,-44.58873374394466
2,2, 1, 2, 0,15, 0.00,60.00,Wednesday
7,-5.625
8,10.0
9,10.0
49,0.0
53,-0.41804556312452323
77,-0.4025525258724742
78,162.94579533133867
79,297.261552438841
2,2, 1, 2, 0,16, 0.00,60.00,Wednesday
7,-6.625
8,10.0
9,10.0
49,0.0
53,-1.4321949960946636
77,-0.8788097534619936
78,-424.35833444220293
79,-387.5920724477315
2,2, 1, 2, 0,17, 0.00,60.00,Wednesday
7,-7.625
8,10.0
9,10.0
49,0.0
53,-1.8355090153071063
77,-1.6232919702356514
78,-174.24417548218597
79,-183.6680828269337
2,2, 1, 2, 0,18, 0.00,60.00,Wednesday
7,-8.0
8,10.0
9,10.0
49,0.0
53,-2.205918511083327
77,-2.0835932869590628
78,-79.78393475467722
79,-101.83197050532794
2,2, 1, 2, 0,19, 0.00,60.00,Wednesday
7,-8.625
8,10.0
9,10.0
49,0.0
53,-2.3866068807855436
77,-2.275322583599844
78,-57.1719136371891
79,-54.72766936518967
2,2, 1, 2, 0,20, 0.00,60.00,Wednesday
7,-10.25
8,10.0
9,10.0
49,0.0
53,-2.6407116921857448
77,-2.4979808672038715
78,-85.55413809305131
79,-81.17837745458343
2,2, 1, 2, 0,21, 0.00,60.00,Wednesday
7,-11.0
8,10.0
9,10.0
49,0.0
53,-2.8984339748204473
77,-2.7632934827099103
78,-74.71398847569918
79,-77.55252895468148
2,2, 1, 2, 0,22, 0.00,60.00,Wednesday
7,-11.0
8,10.0
9,10.0
49,0.0
53,-3.118092874478704
77,-2.9881796077515475
78,-65.6039027584435
79,-67.05757311384453
2,2, 1, 2, 0,23, 0.00,60.00,Wednesday
7,-11.625
8,10.0
9,10.0
49,0.0
53,-3.324827739393227
77,-3.1931221313197002
78,-65.70231936060159
79,-64.77361335031102
2,2, 1, 2, 0,24, 0.00,60.00,Wednesday
7,-12.0
8,10.0
9,10.0
49,0.0
53,-3.529796177822436
77,-3.4014854492494564
78,-62.14448812362819
79,-63.475934629258646
3,2, 1, 2, 0,Wednesday
54,-2.1861342037263127,-4.190280690322422,24,60,2.0343414059989327,15,30
55,-4.332474612175612,-16.06480267890344, 6,60,35.50431168774863,15,30
56,1.152903120338488,0.5149673092611603,17,45,1.7514209530291993,15,15
57,5.980726356648563,0.9428164497467338, 1,60,11.933897851734285,20,60
58,-2.4134288160159754,-4.190414632572636,24,60,-0.19473549579114252,15,30
59,-7.758615885047486,-16.06480267984139, 6,60,8.67004929171964,12,30
60,1.0837856687377478,0.37347998772895485, 9,15,1.3299095494367716, 7,15
61,6.1108001481511,0.9924171797440432, 1,60,15.068923798583615,20,60
62,-2.4832638758316654,-4.1920251334941625,24,60,-0.19473549576184118,15,30
63,-8.712302227235748,-16.098785859471395, 6,60,3.298648786453011,12,30
64,1.0905588195559759,0.4016588462189246,13,45,1.3308938339724699, 7,15
65,5.962705684535661,0.9924171797440432, 1,60,15.068923798583615,20,60
66,-2.381676070573944,-4.191890312067744,24,60,1.4876481902321979,15,30
67,-7.239916705164377,-16.09878581289547, 6,60,26.225666355934326,15,30
68,1.10139106866083,0.5022130719361086,17,30,1.5879281892179056,15,45
69,5.748204406218366,0.9428164497467338, 1,60,11.93389785173108,20,60
70,-1.551413509372073,-2.694591769251208,24,60,-0.09432948858658644, 1,15
71,-1.5239145095436637,-2.6458362252448047,24,60,-0.05468778572390679, 1,15
72,1.1711316910858165,0.2596847185066686,12,15,1.5586741347221316, 7,45
73,-2.1676467097999117,-3.803032476720117,24,60,0.16592725735322433,15,30
74,-8.84434929558325,-18.77888139292245, 6,60,17.288987421180575,12,30
75,0.9697402446711245,0.1658666048067728, 9,45,1.3157885540289018,16,45
76,6.930738374490897,0.5029409963295884,10,60,17.14805286367103,20,60
10,0.0,0, 1,15,0, 1,15
11,4.,4, 1,15,4, 1,15
2,3, 1, 3, 0, 1, 0.00,60.00,Thursday
7,-12.625
8,10.0
9,10.0
49,0.0
53,-3.769207368535924
77,-3.621502666597938
78,-80.16399697922549
79,-76.64630458727316
2,3, 1, 3, 0, 2, 0.00,60.00,Thursday
7,-13.125
8,10.0
9,10.0
49,0.0
53,-4.003428181241885
77,-3.8667495309471676
78,-67.98647863263506
79,-71.19570372257843
2,3, 1, 3, 0, 3, 0.00,60.00,Thursday
7,-13.45
8,10.0
9,10.0
49,0.0
53,-4.215271800348672
77,-4.077636080404503
78,-67.34947269420033
79,-66.56491413156081
2,3, 1, 3, 0, 4, 0.00,60.00,Thursday
7,-13.85
8,10.0
9,10.0
49,0.0
53,-4.43426285511481
77,-4.2951589936625
78,-68.86468131084158
79,-68.81241254703444
2,3, 1, 3, 0, 5, 0.00,60.00,Thursday
7,-14.0
8,10.0
9,10.0
49,0.0
53,-4.652659544725917
77,-4.513467412153156
78,-68.29931951820981
79,-68.34328498459537
2,3, 1, 3, 0, 6, 0.00,60.00,Thursday
7,-14.0
8,10.0
9,10.0
49,0.0
53,-4.86587954543833
77,-4.72833940477906
78,-66.15034462700484
79,-66.65665131394132
2,3, 1, 3, 0, 7, 0.00,60.00,Thursday
7,-14.0
8,8.75
9,8.75
49,0.0
53,-5.115467288366658
77,-4.959450882074748
78,-83.73376706856843
79,-80.15421370855438
2,3, 1, 3, 0, 8, 0.00,60.00,Thursday
7,-15.875
8,6.125
9,6.125
49,0.0
53,-5.015409047444463
77,-5.066957222444568
78,85.06213281364029
79,44.453517457334314
2,3, 1, 3, 0, 9, 0.00,60.00,Thursday
7,-14.5
8,8.125
9,7.5
49,0.0
53,-3.7000867957309365
77,-4.165886473606994
78,532.1348531650758
79,505.3808056421599
2,3, 1, 3, 0,10, 0.00,60.00,Thursday
7,-11.75
8,7.5
9,6.5
49,0.0
53,-3.132134330131295
77,-3.001347813501235
78,95.19591958960235
79,172.76679122530084
2,3, 1, 3, 0,11, 0.00,60.00,Thursday
7,-9.75
8,6.0
9,5.0
49,0.0
53,-3.2718322336219114
77,-3.135270862253028
78,-40.775388497489786
79,-70.57421071027913
2,3, 1, 3, 0,12, 0.00,60.00,Thursday
7,-8.375
8,6.0
9,5.625
49,0.0
53,-2.89734882098967
77,-2.9726013089105914
78,122.78913326427966
79,112.23612918134117
2,3, 1, 3, 0,13, 0.00,60.00,Thursday
7,-7.375
8,6.0
9,6.0
49,0.0
53,-2.10341851643826
77,-2.2869469163896587
78,287.05958078312597
79,274.3309512209246
2,3, 1, 3, 0,14, 0.00,60.00,Thursday
7,-7.0625
8,4.75
9,4.75
49,0.0
53,-1.5743127891722695
77,-1.5628247177094203
78,172.71259072035969
79,180.58866032853953
2,3, 1, 3, 0,15, 0.00,60.00,Thursday
7,-7.5375
8,5.875
9,5.25
49,0.0
53,-1.189152888725229
77,-1.0163823257824989
78,130.20582307296618
79,150.0296858518489
2,3, 1, 3, 0,16, 0.00,60.00,Thursday
7,-8.55
8,7.625
9,6.0
49,0.0
53,-1.4373658691930637
77,-0.9961100984743587
78,-162.58691268078047
79,-111.59377108437221
2,3, 1, 3, 0,17, 0.00,60.00,Thursday
7,-9.0
8,9.25
9,7.875
49,0.0
53,-2.6597356093011144
77,-2.05045534275021
78,-508.06155581834605
79,-509.5617013977892
2,3, 1, 3, 0,18, 0.00,60.00,Thursday
7,-9.0
8,10.0
9,9.0
49,0.0
53,-3.302081270315258
77,-3.1332832266379502
78,-136.64159561903483
79,-187.63504067970928
2,3, 1, 3, 0,19, 0.00,60.00,Thursday